----- GAMESS execution script 'rungms' -----
This job is running on host chemcompute-node-0.novalocal
under operating system Linux at Fri Nov 5 18:32:59 UTC 2021
SLURM has assigned the following compute nodes to this run:
chemcompute-node-0
Available scratch disk space (Kbyte units) at beginning of the job is
Filesystem     1K-blocks     Used Available Use% Mounted on
/dev/sda1       62903276 16755808  46147468  27% /
GAMESS temporary binary files will be written to /scratch/301309
GAMESS supplementary output files will be written to /data/slurm/336318
Copying input file 336318.inp to your run's scratch directory...
The generated host list is
chemcompute-node-0.novalocal

 Distributed Data Interface kickoff program.
 Initiating 1 compute processes on 1 nodes to run the following command:
 /data/gamess-2019R1-ddi/gamess.00.x 336318 

          ******************************************************
          *         GAMESS VERSION = 30 JUN 2019 (R1)          *
          *             FROM IOWA STATE UNIVERSITY             *
          * M.W.SCHMIDT, K.K.BALDRIDGE, J.A.BOATZ, S.T.ELBERT, *
          *   M.S.GORDON, J.H.JENSEN, S.KOSEKI, N.MATSUNAGA,   *
          *          K.A.NGUYEN, S.J.SU, T.L.WINDUS,           *
          *       TOGETHER WITH M.DUPUIS, J.A.MONTGOMERY       *
          *         J.COMPUT.CHEM.  14, 1347-1363(1993)        *
          **************** 64 BIT LINUX VERSION ****************

  SINCE 1993, STUDENTS AND POSTDOCS WORKING AT IOWA STATE UNIVERSITY
  AND ALSO IN THEIR VARIOUS JOBS AFTER LEAVING ISU HAVE MADE IMPORTANT
  CONTRIBUTIONS TO THE CODE:
     IVANA ADAMOVIC, CHRISTINE AIKENS, YURI ALEXEEV, POOJA ARORA,
     ANDREY ASADCHEV, ROB BELL, PRADIPTA BANDYOPADHYAY, JONATHAN BENTZ,
     COLLEEN BERTONI, BRETT BODE, KURT BRORSEN, CALEB CARLIN, GALINA CHABAN,
     WEI CHEN, CHEOL HO CHOI, PAUL DAY, ALBERT DEFUSCO, NUWAN DESILVA,
     TIM DUDLEY, DMITRI FEDOROV, ALEX FINDLATER, GRAHAM FLETCHER, 
     MARK FREITAG, KURT GLAESEMANN, ANASTASIA GUNINA,
     DAN KEMP, GRANT MERRILL, NORIYUKI MINEZAWA, JONATHAN MULLIN,
     TAKESHI NAGATA, SEAN NEDD, HEATHER NETZLOFF, BOSILJKA NJEGIC, RYAN OLSON,
     MIKE PAK, BUU PHAM,
     SPENCER PRUITT, LUKE ROSKOP, JIM SHOEMAKER, LYUDMILA SLIPCHENKO,
     TONY SMITH, SAROM SOK LEANG, JIE SONG, TETSUYA TAKETSUGU, SIMON WEBB,
     PENG XU, SOOHAENG YOO, FEDERICO ZAHARIEV

  ADDITIONAL CODE HAS BEEN PROVIDED BY COLLABORATORS IN OTHER GROUPS:
     IOWA STATE UNIVERSITY:
          JOE IVANIC, AARON WEST, LAIMUTIS BYTAUTAS, KLAUS RUEDENBERG
     UNIVERSITY OF TOKYO: KIMIHIKO HIRAO, TAKAHITO NAKAJIMA,
          TAKAO TSUNEDA, MUNEAKI KAMIYA, SUSUMU YANAGISAWA,
          KIYOSHI YAGI, MAHITO CHIBA, SEIKEN TOKURA, NAOAKI KAWAKAMI
     UNIVERSITY OF AARHUS: FRANK JENSEN
     UNIVERSITY OF IOWA: VISVALDAS KAIRYS, HUI LI
     NATIONAL INST. OF STANDARDS AND TECHNOLOGY: WALT STEVENS, DAVID GARMER
     UNIVERSITY OF PISA: BENEDETTA MENNUCCI, JACOPO TOMASI
     UNIVERSITY OF MEMPHIS: HENRY KURTZ, PRAKASHAN KORAMBATH
     UNIVERSITY OF ALBERTA: TOBY ZENG, MARIUSZ KLOBUKOWSKI
     UNIVERSITY OF NEW ENGLAND: MARK SPACKMAN
     MIE UNIVERSITY: HIROAKI UMEDA
     NAT. INST. OF ADVANCED INDUSTRIAL SCIENCE AND TECHNOLOGY: KAZUO KITAURA
     MICHIGAN STATE UNIVERSITY:
          KAROL KOWALSKI, MARTA WLOCH, JEFFREY GOUR, JESSE LUTZ,
          WEI LI, JUN SHEN, J. EMILIANO DEUSTUA, PIOTR PIECUCH
     UNIVERSITY OF MINNESOTA:
          YINAN SHU
     UNIVERSITY OF SILESIA: MONIKA MUSIAL, STANISLAW KUCHARSKI
     FACULTES UNIVERSITAIRES NOTRE-DAME DE LA PAIX:
          OLIVIER QUINET, BENOIT CHAMPAGNE
     UNIVERSITY OF CALIFORNIA - SANTA BARBARA: BERNARD KIRTMAN
     INSTITUTE FOR MOLECULAR SCIENCE:
          KAZUYA ISHIMURA, MICHIO KATOUDA, AND SHIGERU NAGASE
     UNIVERSITY OF NOTRE DAME: ANNA POMOGAEVA, DAN CHIPMAN
     KYUSHU UNIVERSITY:
          HARUYUKI NAKANO,
          FENG LONG GU, JACEK KORCHOWIEC, MARCIN MAKOWSKI, AND YURIKO AOKI,
          HIROTOSHI MORI AND EISAKU MIYOSHI
     PENNSYLVANIA STATE UNIVERSITY:
          TZVETELIN IORDANOV, CHET SWALINA, JONATHAN SKONE,
          SHARON HAMMES-SCHIFFER
     WASEDA UNIVERSITY:
          MASATO KOBAYASHI, TOMOKO AKAMA, TSUGUKI TOUMA,
          TAKESHI YOSHIKAWA, YASUHIRO IKABATA, JUNJI SEINO,
          YUYA NAKAJIMA, HIROMI NAKAI
     NANJING UNIVERSITY: SHUHUA LI
     UNIVERSITY OF NEBRASKA:
          PEIFENG SU, DEJUN SI, NANDUN THELLAMUREGE, YALI WANG, HUI LI
     UNIVERSITY OF ZURICH: ROBERTO PEVERATI, KIM BALDRIDGE
     N. COPERNICUS UNIVERSITY AND JACKSON STATE UNIVERSITY:
          MARIA BARYSZ
     UNIVERSITY OF COPENHAGEN: Jimmy Kromann, CASPER STEINMANN
     TOKYO INSTITUTE OF TECHNOLOGY: HIROYA NAKATA
     NAGOYA UNIVERSITY: YOSHIO NISHIMOTO, STEPHAN IRLE
     MOSCOW STATE UNIVERSITY: VLADIMIR MIRONOV
     A.N.NESMEYANOV INSTITUTE OF ORGANOELEMENT COMPOUNDS OF RUSSIAN ACADEMY OF SCIENCES:
          IGOR S. GERASIMOV

 EXECUTION OF GAMESS BEGUN Fri Nov  5 18:32:59 2021

            ECHO OF THE FIRST FEW INPUT CARDS -
 INPUT CARD>!File created by the GAMESS Input Deck Generator Plugin for Avogadro            
 INPUT CARD> $BASIS GBASIS=STO NGAUSS=3 $END                                                
 INPUT CARD> $CONTRL SCFTYP=RHF RUNTYP=IRC $END                                             
 INPUT CARD> $STATPT HESS=READ ihrep=5 $END                                                 
 INPUT CARD> $FORCE NVIB=2 $END                                                             
 INPUT CARD> $irc npoint=100 saddle=.t. tsengy=.t. forwrd=.t. opttol=0.0005 stride=0.1 $end 
 INPUT CARD> $ZMAT DLC=.t. auto=.t. nonvdw(1)=1,6,3,4,4,5,5,6,1,2,2,3 $END                  
 INPUT CARD>                                                                                
 INPUT CARD>                                                                                
 INPUT CARD> $DATA                                                                          
 INPUT CARD>Title                                                                           
 INPUT CARD>C1                                                                              
 INPUT CARD>C     6.0     5.25095749    -1.91954494     1.99807370                          
 INPUT CARD>C     6.0     3.91554046    -1.51878905     1.81651437                          
 INPUT CARD>C     6.0     3.43210936    -1.34159935     0.50946969                          
 INPUT CARD>C     6.0     4.53339720     0.00816547    -0.32631278                          
 INPUT CARD>C     6.0     5.49801207     0.37888250     0.62613899                          
 INPUT CARD>C     6.0     6.36050463    -0.64522696     1.06130886                          
 INPUT CARD>C     6.0     6.90446901    -1.51897693    -0.04713550                          
 INPUT CARD>C     6.0     6.32223082    -1.59069133    -1.22589743                          
 INPUT CARD>C     6.0     5.06131983    -0.80934948    -1.51949370                          
 INPUT CARD>O     8.0     4.50263500    -0.82378513    -2.60724187                          
 INPUT CARD>H     1.0     5.63252401    -1.91619551     3.01422358                          
 INPUT CARD>H     1.0     5.58411360    -2.78767729     1.44142711                          
 INPUT CARD>H     1.0     3.47826719    -0.89826727     2.59027123                          
 INPUT CARD>H     1.0     3.63183188    -2.13983345    -0.19626145                          
 INPUT CARD>H     1.0     2.43028545    -0.94035131     0.39705804                          
 INPUT CARD>H     1.0     3.81211495     0.76369244    -0.62562048                          
 INPUT CARD>H     1.0     5.29190445     1.20991218     1.28951526                          
 INPUT CARD>H     1.0     7.09683037    -0.38972744     1.81786811                          
 INPUT CARD>H     1.0     7.80204105    -2.08684969     0.17261088                          
 INPUT CARD>H     1.0     6.72343016    -2.19004297    -2.03250480                          
 INPUT CARD> $END                                                                           
 INPUT CARD>                                                                                
 INPUT CARD> $HESS                                                                          
 INPUT CARD>ENERGY IS     -416.0940647003 E(NUC) IS      511.4290011934                     
 INPUT CARD> 1  1 5.47175980E-01-3.49415753E-01 2.19681380E-01-3.07748925E-01 1.17572278E-01
 INPUT CARD> 1  2 4.49721729E-02 1.68475615E-02 9.41548569E-02-1.48007731E-01-1.21731933E-01
 INPUT CARD> 1  3-9.57014327E-02-1.03820274E-02 1.08057004E-01-7.10189550E-02 9.97638819E-02
 INPUT CARD> 1  4 5.30437977E-03 1.80189588E-01-1.31250352E-01-1.90070742E-02-8.66258185E-03
 INPUT CARD> 1  5 3.07743959E-02-6.32937196E-03-3.72940960E-03-6.07467443E-03 5.47777715E-03
 INPUT CARD> 1  6 1.08873606E-02-4.59351676E-03-7.89504635E-04-3.22432334E-03-1.22322065E-03
 INPUT CARD> 1  7-1.10899925E-01 2.25266181E-02-1.39743343E-01-8.62042415E-02 1.30882799E-01
 INPUT CARD> 1  8 3.39385584E-02-1.05663067E-02-1.90441221E-03-9.68110816E-03-1.16789690E-02
 INPUT CARD> 1  9-1.15701577E-02 8.54226012E-03-1.68842239E-03-3.34008815E-03-3.06531839E-04
 INPUT CARD> 1 10 6.14661643E-03 3.29569504E-03-3.36190562E-03-3.61017622E-04 2.59868610E-03
 INPUT CARD> 1 11 1.02075484E-03-1.49381353E-02-1.67744256E-02 1.72480568E-02 8.56467589E-04
 INPUT CARD> 1 12 1.03459512E-03-3.20066764E-04 2.07269792E-03 2.20339115E-03-9.98085885E-04
 INPUT CARD> 2  1-3.49415753E-01 5.48759674E-01 1.93238590E-01 1.91794760E-01-1.52874481E-01
 INPUT CARD> 2  2 1.07736140E-02 1.24044153E-02 2.85436114E-02-3.76063987E-02-3.78442323E-02
    1000000 WORDS OF MEMORY AVAILABLE

     BASIS OPTIONS
     -------------
     GBASIS=STO          IGAUSS=       3      POLAR=NONE    
     NDFUNC=       0     NFFUNC=       0     DIFFSP=       F
     NPFUNC=       0      DIFFS=       F     BASNAM=        


     RUN TITLE
     ---------
 Title                                                                           

 THE POINT GROUP OF THE MOLECULE IS C1      
 THE ORDER OF THE PRINCIPAL AXIS IS     0

 ATOM      ATOMIC                      COORDINATES (BOHR)
           CHARGE         X                   Y                   Z
 C           6.0     9.9228708293       -3.6274139577        3.7758117963
 C           6.0     7.3992985632       -2.8700951377        3.4327144121
 C           6.0     6.4857462503       -2.5352551568        0.9627581131
 C           6.0     8.5668785015        0.0154305009       -0.6166417405
 C           6.0    10.3897362895        0.7159841065        1.1832311213
 C           6.0    12.0196108943       -1.2193021543        2.0055829337
 C           6.0    13.0475545196       -2.8704501794       -0.0890731793
 C           6.0    11.9472838809       -3.0059707447       -2.3166102318
 C           6.0     9.5645076149       -1.5294487455       -2.8714267331
 O           8.0     8.5087463727       -1.5567281685       -4.9269727180
 H           1.0    10.6439269982       -3.6210844528        5.6960566319
 H           1.0    10.5524445883       -5.2679462203        2.7239022692
 H           1.0     6.5729719012       -1.6974790040        4.8949028586
 H           1.0     6.8631670867       -4.0436988799       -0.3708803625
 H           1.0     4.5925735724       -1.7770063081        0.7503308968
 H           1.0     7.2038526892        1.4431694505       -1.1822512795
 H           1.0    10.0002493637        2.2864024894        2.4368304984
 H           1.0    13.4110647806       -0.7364780715        3.4352726097
 H           1.0    14.7437197295       -3.9435740917        0.3261872657
 H           1.0    12.7054407000       -4.1385811146       -3.8408771407

          INTERNUCLEAR DISTANCES (ANGS.)
          ------------------------------

                1 C          2 C          3 C          4 C          5 C     

   1 C       0.0000000    1.4060255 *  2.4203660 *  3.1038255    2.6881238 *
   2 C       1.4060255 *  0.0000000    1.4048016 *  2.7027847 *  2.7426934 *
   3 C       2.4203660 *  1.4048016 *  0.0000000    1.9321574 *  2.6910265 *
   4 C       3.1038255    2.7027847 *  1.9321574 *  0.0000000    1.4053744 *
   5 C       2.6881238 *  2.7426934 *  2.6910265 *  1.4053744 *  0.0000000  
   6 C       1.9319704 *  2.7039408 *  3.0602222    2.3855266 *  1.4078588 *
   7 C       2.6603450 *  3.5223408    3.5211580    2.8340934 *  2.4562757 *
   8 C       3.4131746    3.8798966    3.3802881    2.5623273 *  2.8264105 *
   9 C       3.6934776    3.5979251    2.6559949 *  1.5397122 *  2.4912517 *
  10 O       4.7926619    4.5163403    3.3358728    2.4281115 *  3.5905343  
  11 H       1.0854330 *  2.1308383 *  3.3831609    4.0087938    3.3148793  
  12 H       1.0837445 *  2.1295314 *  2.7551422 *  3.4706838    3.2709646  
  13 H       2.1298209 *  1.0839534 *  2.1280059 *  3.2313127    3.0932663  
  14 H       2.7359096 *  2.1254301 *  1.0840310 *  2.3331594 *  3.2408180  
  15 H       3.3879584    2.1343451 *  1.0850288 *  2.4178562 *  3.3472082  
  16 H       4.0191792    3.3443148    2.4217943 *  1.0865791 *  2.1347669 *
  17 H       3.2089303    3.1012766    3.2523099    2.1518431 *  1.0831245 *
  18 H       2.4041760 *  3.3757055    4.0060138    3.3655639    2.1371007 *
  19 H       3.1413903    4.2579336    4.4458042    3.9143385    3.4050070  
  20 H       4.2996404    4.8114213    4.2443237    3.5411094    3.8947932  

                6 C          7 C          8 C          9 C         10 O     

   1 C       1.9319704 *  2.6603450 *  3.4131746    3.6934776    4.7926619  
   2 C       2.7039408 *  3.5223408    3.8798966    3.5979251    4.5163403  
   3 C       3.0602222    3.5211580    3.3802881    2.6559949 *  3.3358728  
   4 C       2.3855266 *  2.8340934 *  2.5623273 *  1.5397122 *  2.4281115 *
   5 C       1.4078588 *  2.4562757 *  2.8264105 *  2.4912517 *  3.5905343  
   6 C       0.0000000    1.5126087 *  2.4752132 *  2.8940213 *  4.1160451  
   7 C       1.5126087 *  0.0000000    1.3166715 *  2.4634546 *  3.5785811  
   8 C       2.4752132 *  1.3166715 *  0.0000000    1.5121476 *  2.4098105 *
   9 C       2.8940213 *  2.4634546 *  1.5121476 *  0.0000000    1.2229200 *
  10 O       4.1160451    3.5785811    2.4098105 *  1.2229200 *  0.0000000  
  11 H       2.4411458 *  3.3387941    4.3081637    4.7016991    5.8370269  
  12 H       2.3102741 *  2.3598215 *  3.0153296    3.5991869    4.6279789  
  13 H       3.2724682    4.3680721    4.8094411    4.4050119    5.2980203  
  14 H       3.3557394    3.3343448    2.9325678 *  2.3589334 *  2.8815114 *
  15 H       3.9968676    4.5332587    4.2666340    3.2577099    3.6515802  
  16 H       3.3652748    3.8868854    3.4934420    2.1986321 *  2.6312975 *
  17 H       2.1530271 *  3.4400342    3.9028520    3.4671484    4.4658244  
  18 H       1.0862032 *  2.1887087 *  3.3625626    3.9315862    5.1478009  
  19 H       2.2239801 *  1.0846214 *  2.0956710 *  3.4650797    4.4954414  
  20 H       3.4770468    2.1035199 *  1.0820345 *  2.2208344 *  2.6700027 *

               11 H         12 H         13 H         14 H         15 H     

   1 C       1.0854330 *  1.0837445 *  2.1298209 *  2.7359096 *  3.3879584  
   2 C       2.1308383 *  2.1295314 *  1.0839534 *  2.1254301 *  2.1343451 *
   3 C       3.3831609    2.7551422 *  2.1280059 *  1.0840310 *  1.0850288 *
   4 C       4.0087938    3.4706838    3.2313127    2.3331594 *  2.4178562 *
   5 C       3.3148793    3.2709646    3.0932663    3.2408180    3.3472082  
   6 C       2.4411458 *  2.3102741 *  3.2724682    3.3557394    3.9968676  
   7 C       3.3387941    2.3598215 *  4.3680721    3.3343448    4.5332587  
   8 C       4.3081637    3.0153296    4.8094411    2.9325678 *  4.2666340  
   9 C       4.7016991    3.5991869    4.4050119    2.3589334 *  3.2577099  
  10 O       5.8370269    4.6279789    5.2980203    2.8815114 *  3.6515802  
  11 H       0.0000000    1.7987531 *  2.4200694 *  3.7894587    4.2492540  
  12 H       1.7987531 *  0.0000000    3.0535720    2.6292831 *  3.8013093  
  13 H       2.4200694 *  3.0535720    0.0000000    3.0544775    2.4310946 *
  14 H       3.7894587    2.6292831 *  3.0544775    0.0000000    1.7984714 *
  15 H       4.2492540    3.8013093    2.4310946 *  1.7984714 *  0.0000000  
  16 H       4.8727973    4.4749181    3.6353162    2.9406315 *  2.4205556 *
  17 H       3.5865289    4.0111326    3.0701249    4.0229553    3.6890346  
  18 H       2.4301367 *  2.8601020 *  3.7348653    4.3733058    4.9090253  
  19 H       3.5792024    2.6495766 *  5.0943920    4.1868268    5.4973260  
  20 H       5.1705450    3.7045124    5.7939473    3.5961494    5.0887716  

               16 H         17 H         18 H         19 H         20 H     

   1 C       4.0191792    3.2089303    2.4041760 *  3.1413903    4.2996404  
   2 C       3.3443148    3.1012766    3.3757055    4.2579336    4.8114213  
   3 C       2.4217943 *  3.2523099    4.0060138    4.4458042    4.2443237  
   4 C       1.0865791 *  2.1518431 *  3.3655639    3.9143385    3.5411094  
   5 C       2.1347669 *  1.0831245 *  2.1371007 *  3.4050070    3.8947932  
   6 C       3.3652748    2.1530271 *  1.0862032 *  2.2239801 *  3.4770468  
   7 C       3.8868854    3.4400342    2.1887087 *  1.0846214 *  2.1035199 *
   8 C       3.4934420    3.9028520    3.3625626    2.0956710 *  1.0820345 *
   9 C       2.1986321 *  3.4671484    3.9315862    3.4650797    2.2208344 *
  10 O       2.6312975 *  4.4658244    5.1478009    4.4954414    2.6700027 *
  11 H       4.8727973    3.5865289    2.4301367 *  3.5792024    5.1705450  
  12 H       4.4749181    4.0111326    2.8601020 *  2.6495766 *  3.7045124  
  13 H       3.6353162    3.0701249    3.7348653    5.0943920    5.7939473  
  14 H       2.9406315 *  4.0229553    4.3733058    4.1868268    3.5961494  
  15 H       2.4205556 *  3.6890346    4.9090253    5.4973260    5.0887716  
  16 H       0.0000000    2.4610229 *  4.2532775    4.9681258    4.3794557  
  17 H       2.4610229 *  0.0000000    2.4689595 *  4.2914916    4.9643507  
  18 H       4.2532775    2.4689595 *  0.0000000    2.4666612 *  4.2668414  
  19 H       4.9681258    4.2914916    2.4666612 *  0.0000000    2.4569464 *
  20 H       4.3794557    4.9643507    4.2668414    2.4569464 *  0.0000000  

  * ... LESS THAN  3.000


     ATOMIC BASIS SET
     ----------------
 THE CONTRACTED PRIMITIVE FUNCTIONS HAVE BEEN UNNORMALIZED
 THE CONTRACTED BASIS FUNCTIONS ARE NOW NORMALIZED TO UNITY

  SHELL TYPE  PRIMITIVE        EXPONENT          CONTRACTION COEFFICIENT(S)

 C         

      1   S       1            71.6168373    0.154328967295
      1   S       2            13.0450963    0.535328142282
      1   S       3             3.5305122    0.444634542185

      2   L       4             2.9412494   -0.099967229187    0.155916274999
      2   L       5             0.6834831    0.399512826089    0.607683718598
      2   L       6             0.2222899    0.700115468880    0.391957393099

 C         

      3   S       7            71.6168373    0.154328967295
      3   S       8            13.0450963    0.535328142282
      3   S       9             3.5305122    0.444634542185

      4   L      10             2.9412494   -0.099967229187    0.155916274999
      4   L      11             0.6834831    0.399512826089    0.607683718598
      4   L      12             0.2222899    0.700115468880    0.391957393099

 C         

      5   S      13            71.6168373    0.154328967295
      5   S      14            13.0450963    0.535328142282
      5   S      15             3.5305122    0.444634542185

      6   L      16             2.9412494   -0.099967229187    0.155916274999
      6   L      17             0.6834831    0.399512826089    0.607683718598
      6   L      18             0.2222899    0.700115468880    0.391957393099

 C         

      7   S      19            71.6168373    0.154328967295
      7   S      20            13.0450963    0.535328142282
      7   S      21             3.5305122    0.444634542185

      8   L      22             2.9412494   -0.099967229187    0.155916274999
      8   L      23             0.6834831    0.399512826089    0.607683718598
      8   L      24             0.2222899    0.700115468880    0.391957393099

 C         

      9   S      25            71.6168373    0.154328967295
      9   S      26            13.0450963    0.535328142282
      9   S      27             3.5305122    0.444634542185

     10   L      28             2.9412494   -0.099967229187    0.155916274999
     10   L      29             0.6834831    0.399512826089    0.607683718598
     10   L      30             0.2222899    0.700115468880    0.391957393099

 C         

     11   S      31            71.6168373    0.154328967295
     11   S      32            13.0450963    0.535328142282
     11   S      33             3.5305122    0.444634542185

     12   L      34             2.9412494   -0.099967229187    0.155916274999
     12   L      35             0.6834831    0.399512826089    0.607683718598
     12   L      36             0.2222899    0.700115468880    0.391957393099

 C         

     13   S      37            71.6168373    0.154328967295
     13   S      38            13.0450963    0.535328142282
     13   S      39             3.5305122    0.444634542185

     14   L      40             2.9412494   -0.099967229187    0.155916274999
     14   L      41             0.6834831    0.399512826089    0.607683718598
     14   L      42             0.2222899    0.700115468880    0.391957393099

 C         

     15   S      43            71.6168373    0.154328967295
     15   S      44            13.0450963    0.535328142282
     15   S      45             3.5305122    0.444634542185

     16   L      46             2.9412494   -0.099967229187    0.155916274999
     16   L      47             0.6834831    0.399512826089    0.607683718598
     16   L      48             0.2222899    0.700115468880    0.391957393099

 C         

     17   S      49            71.6168373    0.154328967295
     17   S      50            13.0450963    0.535328142282
     17   S      51             3.5305122    0.444634542185

     18   L      52             2.9412494   -0.099967229187    0.155916274999
     18   L      53             0.6834831    0.399512826089    0.607683718598
     18   L      54             0.2222899    0.700115468880    0.391957393099

 O         

     19   S      55           130.7093214    0.154328967295
     19   S      56            23.8088661    0.535328142282
     19   S      57             6.4436083    0.444634542185

     20   L      58             5.0331513   -0.099967229187    0.155916274999
     20   L      59             1.1695961    0.399512826089    0.607683718598
     20   L      60             0.3803890    0.700115468880    0.391957393099

 H         

     21   S      61             3.4252509    0.154328967295
     21   S      62             0.6239137    0.535328142282
     21   S      63             0.1688554    0.444634542185

 H         

     22   S      64             3.4252509    0.154328967295
     22   S      65             0.6239137    0.535328142282
     22   S      66             0.1688554    0.444634542185

 H         

     23   S      67             3.4252509    0.154328967295
     23   S      68             0.6239137    0.535328142282
     23   S      69             0.1688554    0.444634542185

 H         

     24   S      70             3.4252509    0.154328967295
     24   S      71             0.6239137    0.535328142282
     24   S      72             0.1688554    0.444634542185

 H         

     25   S      73             3.4252509    0.154328967295
     25   S      74             0.6239137    0.535328142282
     25   S      75             0.1688554    0.444634542185

 H         

     26   S      76             3.4252509    0.154328967295
     26   S      77             0.6239137    0.535328142282
     26   S      78             0.1688554    0.444634542185

 H         

     27   S      79             3.4252509    0.154328967295
     27   S      80             0.6239137    0.535328142282
     27   S      81             0.1688554    0.444634542185

 H         

     28   S      82             3.4252509    0.154328967295
     28   S      83             0.6239137    0.535328142282
     28   S      84             0.1688554    0.444634542185

 H         

     29   S      85             3.4252509    0.154328967295
     29   S      86             0.6239137    0.535328142282
     29   S      87             0.1688554    0.444634542185

 H         

     30   S      88             3.4252509    0.154328967295
     30   S      89             0.6239137    0.535328142282
     30   S      90             0.1688554    0.444634542185

 TOTAL NUMBER OF BASIS SET SHELLS             =   30
 NUMBER OF CARTESIAN GAUSSIAN BASIS FUNCTIONS =   60
 NUMBER OF ELECTRONS                          =   72
 CHARGE OF MOLECULE                           =    0
 SPIN MULTIPLICITY                            =    1
 NUMBER OF OCCUPIED ORBITALS (ALPHA)          =   36
 NUMBER OF OCCUPIED ORBITALS (BETA )          =   36
 TOTAL NUMBER OF ATOMS                        =   20
 THE NUCLEAR REPULSION ENERGY IS      511.4290011934

     $CONTRL OPTIONS
     ---------------
 SCFTYP=RHF          RUNTYP=IRC          EXETYP=RUN     
 MPLEVL=       0     CITYP =NONE         CCTYP =NONE         VBTYP =NONE    
 DFTTYP=NONE         TDDFT =NONE    
 MULT  =       1     ICHARG=       0     NZVAR =       0     COORD =UNIQUE  
 PP    =NONE         RELWFN=NONE         LOCAL =NONE         NUMGRD=       F
 ISPHER=      -1     NOSYM =       0     MAXIT =      30     UNITS =ANGS    
 PLTORB=       F     MOLPLT=       F     AIMPAC=       F     FRIEND=        
 NPRINT=       7     IREST =       0     GEOM  =INPUT   
 NORMF =       0     NORMP =       0     ITOL  =      20     ICUT  =       9
 INTTYP=BEST         GRDTYP=BEST         QMTTOL= 1.0E-06

     $SYSTEM OPTIONS
     ---------------
  REPLICATED MEMORY=     1000000 WORDS (ON EVERY NODE).
 DISTRIBUTED MEMDDI=           0 MILLION WORDS IN AGGREGATE,
 MEMDDI DISTRIBUTED OVER   1 PROCESSORS IS           0 WORDS/PROCESSOR.
 TOTAL MEMORY REQUESTED ON EACH PROCESSOR=     1000000 WORDS.
 TIMLIM=      525600.00 MINUTES, OR     365.0 DAYS.
 PARALL= F  BALTYP=  DLB     KDIAG=    0  COREFL= F
 MXSEQ2=     300 MXSEQ3=     150  mem10=         0

          ----------------
          PROPERTIES INPUT
          ----------------

     MOMENTS            FIELD           POTENTIAL          DENSITY
 IEMOM =       1   IEFLD =       0   IEPOT =       0   IEDEN =       0
 WHERE =COMASS     WHERE =NUCLEI     WHERE =NUCLEI     WHERE =NUCLEI  
 OUTPUT=BOTH       OUTPUT=BOTH       OUTPUT=BOTH       OUTPUT=BOTH    
 IEMINT=       0   IEFINT=       0                     IEDINT=       0
                                                       MORB  =       0
          EXTRAPOLATION IN EFFECT
          SOSCF IN EFFECT
 ORBITAL PRINTING OPTION: NPREO=     1    60     2     1

     -------------------------------
     INTEGRAL TRANSFORMATION OPTIONS
     -------------------------------
     NWORD  =            0
     CUTOFF = 1.0E-09     MPTRAN =       0
     DIRTRF =       F     AOINTS =DUP     

          ----------------------
          INTEGRAL INPUT OPTIONS
          ----------------------
 NOPK  =       1 NORDER=       0 SCHWRZ=       T

     ------------------------------------------
     THE POINT GROUP IS C1 , NAXIS= 0, ORDER= 1
     ------------------------------------------

     DIMENSIONS OF THE SYMMETRY SUBSPACES ARE
 A   =   60

 ..... DONE SETTING UP THE RUN .....
 STEP CPU TIME =     0.05 TOTAL CPU TIME =          0.0 (      0.0 MIN)
 TOTAL WALL CLOCK TIME=          0.1 SECONDS, CPU UTILIZATION IS    71.43%

          -----------------------------
          INTRINSIC REACTION COORDINATE
          -----------------------------
          PACE   =GS2     
          STRIDE = 0.10000 BOHR*SQRT(AMU)
          NPOINT =     100
          NEXTPT =       0
          STOTAL =  0.0000 BOHR*SQRT(AMU)
          SAB    =  0.0000 BOHR*SQRT(AMU)
          NPRT   =       0
          NPUN   =       0

          SADDLE =       T
          TSENGY =       T
          FORWRD =       T
          EVIB   = 0.00050 HARTREE
          FREQ   =     0.0 CM**-1

          STABLZ =       F
          ELBOW  =  175.00 DEGREES
          DELTA  = 0.02500 BOHR

          READQB =       F
          EB     =        0.0000000000 HARTREES
          GBNORM =        0.0000000000 HARTREES/SQRT(AMU)-BOHR

          GCUT   = 0.0000500 HARTREES/SQRT(AMU)-BOHR
          RCUT   = 0.0005000 BOHR
          ACUT   =    5.00 DEGREES
          MXOPT  =      20
          IHUPD  =       2

 ATOMIC MASSES USED (IN AMU) ARE
     C             12.0000
     C             12.0000
     C             12.0000
     C             12.0000
     C             12.0000
     C             12.0000
     C             12.0000
     C             12.0000
     C             12.0000
     O             15.9949
     H              1.0078
     H              1.0078
     H              1.0078
     H              1.0078
     H              1.0078
     H              1.0078
     H              1.0078
     H              1.0078
     H              1.0078
     H              1.0078

 JUMP AWAY FROM SADDLE POINT WILL BE FOUND FROM THE INPUT HESSIAN MATRIX

 COMPUTING WAVEFUNCTION AT TRANSITION STATE...

          ********************
          1 ELECTRON INTEGRALS
          ********************
 ...... END OF ONE-ELECTRON INTEGRALS ......
 STEP CPU TIME =     0.04 TOTAL CPU TIME =          0.1 (      0.0 MIN)
 TOTAL WALL CLOCK TIME=          0.1 SECONDS, CPU UTILIZATION IS    75.00%

          -------------
          GUESS OPTIONS
          -------------
          GUESS =HUCKEL            NORB  =       0          NORDER=       0
          MIX   =       F          PRTMO =       F          PUNMO =       F
          TOLZ  = 1.0E-08          TOLE  = 1.0E-05
          SYMDEN=       F          PURIFY=       F

 INITIAL GUESS ORBITALS GENERATED BY HUCKEL   ROUTINE.
 HUCKEL GUESS REQUIRES     53820 WORDS.

 SYMMETRIES FOR INITIAL GUESS ORBITALS FOLLOW.   BOTH SET(S).
    36 ORBITALS ARE OCCUPIED (   10 CORE ORBITALS).
    11=A       12=A       13=A       14=A       15=A       16=A       17=A   
    18=A       19=A       20=A       21=A       22=A       23=A       24=A   
    25=A       26=A       27=A       28=A       29=A       30=A       31=A   
    32=A       33=A       34=A       35=A       36=A       37=A       38=A   
    39=A       40=A       41=A       42=A       43=A       44=A       45=A   
    46=A   
 ...... END OF INITIAL ORBITAL SELECTION ......
 STEP CPU TIME =     0.04 TOTAL CPU TIME =          0.1 (      0.0 MIN)
 TOTAL WALL CLOCK TIME=          0.1 SECONDS, CPU UTILIZATION IS    86.67%

                    ----------------------
                    AO INTEGRAL TECHNOLOGY
                    ----------------------
     S,P,L SHELL ROTATED AXIS INTEGRALS, REPROGRAMMED BY
        KAZUYA ISHIMURA (IMS) AND JOSE SIERRA (SYNSTAR).
     S,P,D,L SHELL ROTATED AXIS INTEGRALS PROGRAMMED BY
        KAZUYA ISHIMURA (INSTITUTE FOR MOLECULAR SCIENCE).
     S,P,D,F,G SHELL TO TOTAL QUARTET ANGULAR MOMENTUM SUM 5,
        ERIC PROGRAM BY GRAHAM FLETCHER (ELORET AND NASA ADVANCED
        SUPERCOMPUTING DIVISION, AMES RESEARCH CENTER).
     S,P,D,F,G,L SHELL GENERAL RYS QUADRATURE PROGRAMMED BY
        MICHEL DUPUIS (PACIFIC NORTHWEST NATIONAL LABORATORY).

          --------------------
          2 ELECTRON INTEGRALS
          --------------------

 THE -PK- OPTION IS OFF, THE INTEGRALS ARE NOT IN SUPERMATRIX FORM.
 STORING   15000 INTEGRALS/RECORD ON DISK, USING 12 BYTES/INTEGRAL.
 TWO ELECTRON INTEGRAL EVALUATION REQUIRES   89821 WORDS OF MEMORY.
 SCHWARZ INEQUALITY OVERHEAD:      1797 INTEGRALS, T=        0.00
 II,JST,KST,LST =  1  1  1  1 NREC =         1 INTLOC =    1
 II,JST,KST,LST =  2  1  1  1 NREC =         1 INTLOC =    2
 II,JST,KST,LST =  3  1  1  1 NREC =         1 INTLOC =   34
 II,JST,KST,LST =  4  1  1  1 NREC =         1 INTLOC =  144
 II,JST,KST,LST =  5  1  1  1 NREC =         1 INTLOC = 1366
 II,JST,KST,LST =  6  1  1  1 NREC =         1 INTLOC = 1964
 II,JST,KST,LST =  7  1  1  1 NREC =         1 INTLOC = 6866
 II,JST,KST,LST =  8  1  1  1 NREC =         1 INTLOC = 8488
 II,JST,KST,LST =  9  1  1  1 NREC =         2 INTLOC = 5919
 II,JST,KST,LST = 10  1  1  1 NREC =         2 INTLOC = 9728
 II,JST,KST,LST = 11  1  1  1 NREC =         4 INTLOC = 5106
 II,JST,KST,LST = 12  1  1  1 NREC =         4 INTLOC =12238
 II,JST,KST,LST = 13  1  1  1 NREC =         7 INTLOC =12392
 II,JST,KST,LST = 14  1  1  1 NREC =         8 INTLOC = 8581
 II,JST,KST,LST = 15  1  1  1 NREC =        13 INTLOC = 5616
 II,JST,KST,LST = 16  1  1  1 NREC =        14 INTLOC = 7894
 II,JST,KST,LST = 17  1  1  1 NREC =        21 INTLOC =11389
 II,JST,KST,LST = 18  1  1  1 NREC =        23 INTLOC = 7326
 II,JST,KST,LST = 19  1  1  1 NREC =        33 INTLOC =14563
 II,JST,KST,LST = 20  1  1  1 NREC =        35 INTLOC =10208
 II,JST,KST,LST = 21  1  1  1 NREC =        47 INTLOC =11732
 II,JST,KST,LST = 22  1  1  1 NREC =        51 INTLOC = 7284
 II,JST,KST,LST = 23  1  1  1 NREC =        55 INTLOC =11527
 II,JST,KST,LST = 24  1  1  1 NREC =        59 INTLOC =14993
 II,JST,KST,LST = 25  1  1  1 NREC =        64 INTLOC =13805
 II,JST,KST,LST = 26  1  1  1 NREC =        69 INTLOC =14379
 II,JST,KST,LST = 27  1  1  1 NREC =        75 INTLOC = 6136
 II,JST,KST,LST = 28  1  1  1 NREC =        81 INTLOC = 1328
 II,JST,KST,LST = 29  1  1  1 NREC =        86 INTLOC =14115
 II,JST,KST,LST = 30  1  1  1 NREC =        93 INTLOC = 1710
 SCHWARZ INEQUALITY TEST SKIPPED       23997 INTEGRAL BLOCKS.
 TOTAL NUMBER OF NONZERO TWO-ELECTRON INTEGRALS =             1479218
         99 INTEGRAL RECORDS WERE STORED ON DISK FILE  8.
  ...... END OF TWO-ELECTRON INTEGRALS .....
 STEP CPU TIME =     0.34 TOTAL CPU TIME =          0.5 (      0.0 MIN)
 TOTAL WALL CLOCK TIME=          0.5 SECONDS, CPU UTILIZATION IS    94.00%

          --------------------------
                 RHF SCF CALCULATION
          --------------------------

     NUCLEAR ENERGY =       511.4290011934
     MAXIT =   30     NPUNCH=    2
     EXTRAP=T  DAMP=F  SHIFT=F  RSTRCT=F  DIIS=F  DEM=F  SOSCF=T
     DENSITY MATRIX CONV=  1.00E-05
     SOSCF WILL OPTIMIZE     864 ORBITAL ROTATIONS, SOGTOL=   0.250
     MEMORY REQUIRED FOR RHF ITERS=     59496 WORDS.

 ITER EX DEM     TOTAL ENERGY        E CHANGE  DENSITY CHANGE     ORB. GRAD
   1  0  0     -415.5142732815  -415.5142732815   0.525859196   0.000000000
          ---------------START SECOND ORDER SCF---------------
   2  1  0     -416.0270663907    -0.5127931093   0.266778591   0.066087869
   3  2  0     -416.0575265393    -0.0304601485   0.120290239   0.049836984
   4  3  0     -416.0929946224    -0.0354680831   0.015500405   0.007796439
   5  4  0     -416.0939324315    -0.0009378091   0.004023444   0.003107177
   6  5  0     -416.0940492278    -0.0001167963   0.002212659   0.000765416
   7  6  0     -416.0940624864    -0.0000132586   0.000792778   0.000260791
   8  7  0     -416.0940644486    -0.0000019622   0.000349264   0.000072951
   9  8  0     -416.0940646515    -0.0000002028   0.000209555   0.000030749
  10  9  0     -416.0940646920    -0.0000000405   0.000072844   0.000016900
  11 10  0     -416.0940646988    -0.0000000068   0.000022431   0.000004081
  12 11  0     -416.0940647001    -0.0000000013   0.000006738   0.000001594
  13 12  0     -416.0940647003    -0.0000000002   0.000003316   0.000000697

          -----------------
          DENSITY CONVERGED
          -----------------
     TIME TO FORM FOCK OPERATORS=       0.3 SECONDS (       0.0 SEC/ITER)
     TIME TO SOLVE SCF EQUATIONS=       0.0 SECONDS (       0.0 SEC/ITER)

 FINAL RHF ENERGY IS     -416.0940647003 AFTER  13 ITERATIONS

          ------------
          EIGENVECTORS
          ------------

                      1          2          3          4          5
                  -20.2645   -11.1197   -11.0567   -11.0499   -11.0469
                     A          A          A          A          A   
    1  C  1  S   -0.000000   0.000023  -0.026128  -0.005787   0.004761
    2  C  1  S    0.000003  -0.000004  -0.004001   0.000030   0.000145
    3  C  1  X    0.000001   0.000005  -0.001515  -0.000071  -0.000014
    4  C  1  Y    0.000001  -0.000004  -0.001819  -0.000229  -0.000031
    5  C  1  Z    0.000002  -0.000015   0.001331   0.000191   0.000011
    6  C  2  S   -0.000001   0.000011  -0.000490   0.000059  -0.001578
    7  C  2  S    0.000012  -0.000036   0.000325   0.000058   0.002279
    8  C  2  X   -0.000008   0.000062   0.000221   0.000036  -0.000553
    9  C  2  Y    0.000005  -0.000019  -0.000025  -0.000005   0.000213
   10  C  2  Z   -0.000005   0.000010  -0.000002  -0.000050  -0.001450
   11  C  3  S   -0.000005  -0.000235  -0.000702   0.000851  -0.319401
   12  C  3  S   -0.000002   0.000319  -0.000025   0.000065  -0.014564
   13  C  3  X    0.000009  -0.000139  -0.000088  -0.000003  -0.001366
   14  C  3  Y    0.000022  -0.000204  -0.000000   0.000009  -0.001480
   15  C  3  Z   -0.000041   0.000113  -0.000009  -0.000032   0.000784
   16  C  4  S   -0.000024  -0.001691  -0.004272  -0.008205   0.938946
   17  C  4  S    0.000270  -0.005340  -0.000085  -0.000325   0.035028
   18  C  4  X   -0.000270  -0.001277  -0.000098  -0.000139   0.000772
   19  C  4  Y    0.000095   0.001986   0.000177   0.000101   0.000404
   20  C  4  Z   -0.000378   0.003243  -0.000051  -0.000011   0.000281
   21  C  5  S    0.000003  -0.000284   0.003095  -0.001096   0.004059
   22  C  5  S    0.000030   0.000057  -0.006845   0.000031  -0.006586
   23  C  5  X   -0.000059  -0.000030  -0.002894  -0.000111   0.002985
   24  C  5  Y    0.000024   0.000006   0.003225   0.000053   0.001052
   25  C  5  Z    0.000033   0.000037  -0.001432   0.000078   0.002994
   26  C  6  S    0.000003  -0.000243   0.991558   0.018902   0.004182
   27  C  6  S    0.000006  -0.000053   0.036317  -0.004974   0.000158
   28  C  6  X    0.000029   0.000015   0.000362  -0.001429   0.000122
   29  C  6  Y    0.000006   0.000024   0.001157   0.002272   0.000107
   30  C  6  Z    0.000028   0.000098  -0.001148   0.003138   0.000121
   31  C  7  S    0.000005  -0.000271  -0.018103   0.991816   0.008071
   32  C  7  S    0.000054   0.000108  -0.006636   0.035849   0.000221
   33  C  7  X    0.000036  -0.000059   0.001531  -0.000775   0.000149
   34  C  7  Y   -0.000047   0.000055  -0.002657  -0.000184  -0.000071
   35  C  7  Z   -0.000049   0.000038  -0.003044  -0.001495   0.000010
   36  C  8  S   -0.000025  -0.001006  -0.000981   0.020136  -0.001146
   37  C  8  S    0.000269  -0.005677   0.000303  -0.007398   0.000014
   38  C  8  X   -0.000126   0.003425  -0.000012  -0.002034   0.000025
   39  C  8  Y   -0.000095  -0.002063   0.000113  -0.000235   0.000019
   40  C  8  Z   -0.000489   0.000995   0.000131  -0.004084  -0.000058
   41  C  9  S    0.000547   0.992569   0.000254   0.000332   0.002459
   42  C  9  S   -0.007208   0.032683  -0.000002   0.000161  -0.005398
   43  C  9  X    0.002919  -0.000138  -0.000089  -0.000063   0.001340
   44  C  9  Y    0.000086  -0.000185   0.000049  -0.000012  -0.002288
   45  C  9  Z    0.005683  -0.000404  -0.000096  -0.000135  -0.003012
   46  O 10  S    0.994266   0.000160   0.000005   0.000013  -0.000018
   47  O 10  S    0.026004  -0.005797  -0.000052  -0.000116   0.000222
   48  O 10  X    0.002564  -0.000793  -0.000013  -0.000041  -0.000050
   49  O 10  Y    0.000065  -0.000001  -0.000007   0.000011   0.000141
   50  O 10  Z    0.005003  -0.001527  -0.000031  -0.000050   0.000158
   51  H 11  S   -0.000002   0.000002   0.000336  -0.000018  -0.000017
   52  H 12  S   -0.000002   0.000008   0.000336  -0.000975  -0.000033
   53  H 13  S   -0.000002   0.000007  -0.000001   0.000001  -0.000018
   54  H 14  S    0.000085  -0.001088   0.000005  -0.000048   0.002385
   55  H 15  S   -0.000007  -0.000036  -0.000022  -0.000016   0.002366
   56  H 16  S   -0.000178  -0.000019  -0.000094  -0.000002  -0.006634
   57  H 17  S   -0.000020  -0.000055   0.000086  -0.000084   0.000075
   58  H 18  S   -0.000015  -0.000024  -0.006942  -0.000096  -0.000141
   59  H 19  S   -0.000022  -0.000038   0.000207  -0.006826  -0.000109
   60  H 20  S   -0.000191   0.000013  -0.000034   0.000010  -0.000063

                      6          7          8          9         10
                  -11.0460   -11.0458   -11.0267   -11.0150   -11.0080
                     A          A          A          A          A   
    1  C  1  S   -0.201758   0.971041  -0.000211   0.000876  -0.002489
    2  C  1  S   -0.007263   0.035449   0.000043   0.000284  -0.007132
    3  C  1  X    0.000262  -0.001220   0.000029  -0.000018   0.004356
    4  C  1  Y    0.000159  -0.000907  -0.000040  -0.000097  -0.001456
    5  C  1  Z    0.000075   0.000436  -0.000010   0.000003   0.000654
    6  C  2  S    0.002285   0.003839   0.000073  -0.016896   0.991973
    7  C  2  S   -0.004889  -0.007969   0.000026  -0.001097   0.036619
    8  C  2  X    0.002378  -0.003863   0.000004  -0.000376   0.001598
    9  C  2  Y   -0.000748   0.001225   0.000009  -0.000543   0.001744
   10  C  2  Z    0.003987   0.000173  -0.000002   0.000251  -0.001292
   11  C  3  S    0.919367   0.192644  -0.000272   0.000796  -0.002568
   12  C  3  S    0.032637   0.006966   0.000091   0.000295  -0.007150
   13  C  3  X   -0.000881  -0.000329  -0.000025  -0.000040  -0.001691
   14  C  3  Y   -0.001646  -0.000310  -0.000046  -0.000057   0.000472
   15  C  3  Z    0.001222   0.000268  -0.000066   0.000005  -0.004296
   16  C  4  S    0.314533   0.060593   0.001348  -0.003258   0.000512
   17  C  4  S    0.008619   0.001634   0.000232  -0.007194   0.000038
   18  C  4  X    0.001868   0.000377  -0.000007  -0.003088  -0.000077
   19  C  4  Y    0.002088   0.000490   0.000052  -0.001175  -0.000007
   20  C  4  Z   -0.001201  -0.000269  -0.000049  -0.003208  -0.000145
   21  C  5  S    0.000766  -0.000592  -0.002719   0.991966   0.017128
   22  C  5  S   -0.002066  -0.000482  -0.000213   0.036580   0.000147
   23  C  5  X    0.000921   0.000150  -0.000070  -0.001318   0.000380
   24  C  5  Y    0.000299   0.000062   0.000140  -0.002117   0.000362
   25  C  5  Z    0.000948   0.000177   0.000163   0.000706  -0.000330
   26  C  6  S   -0.003449   0.027021   0.000634  -0.002283   0.000391
   27  C  6  S    0.000495  -0.001984   0.000394  -0.007128   0.000042
   28  C  6  X   -0.000216   0.001617   0.000137   0.002898   0.000133
   29  C  6  Y   -0.000288   0.001790  -0.000070  -0.003303  -0.000068
   30  C  6  Z    0.000344  -0.001322  -0.000066   0.001349   0.000049
   31  C  7  S    0.000700   0.005548  -0.019610   0.001154  -0.000068
   32  C  7  S    0.000014   0.000180  -0.008948   0.000136   0.000008
   33  C  7  X    0.000050   0.000023   0.002078   0.000061  -0.000041
   34  C  7  Y   -0.000003  -0.000074   0.000246  -0.000135  -0.000026
   35  C  7  Z    0.000007   0.000012   0.004219   0.000118  -0.000006
   36  C  8  S   -0.000201   0.000256   0.991965   0.002810  -0.000032
   37  C  8  S    0.000063   0.000027   0.036555   0.000039  -0.000015
   38  C  8  X   -0.000031  -0.000014   0.000770   0.000033  -0.000002
   39  C  8  Y   -0.000017  -0.000019   0.000267  -0.000175  -0.000003
   40  C  8  Z   -0.000011   0.000009   0.001737  -0.000098  -0.000003
   41  C  9  S    0.001094   0.000196   0.001995   0.000354  -0.000008
   42  C  9  S   -0.001652  -0.000304  -0.005871   0.000110  -0.000015
   43  C  9  X    0.000410   0.000074  -0.003504  -0.000161   0.000011
   44  C  9  Y   -0.000742  -0.000143   0.002138  -0.000053  -0.000046
   45  C  9  Z   -0.000960  -0.000180  -0.000832  -0.000051   0.000023
   46  O 10  S   -0.000014  -0.000002  -0.000022   0.000008  -0.000000
   47  O 10  S    0.000105   0.000018   0.000248  -0.000084   0.000007
   48  O 10  X   -0.000036  -0.000009   0.000186   0.000008   0.000007
   49  O 10  Y    0.000032   0.000003  -0.000109   0.000010   0.000005
   50  O 10  Z    0.000083   0.000015   0.000057  -0.000050   0.000002
   51  H 11  S    0.001303  -0.006811  -0.000010  -0.000030   0.000098
   52  H 12  S    0.001392  -0.006823  -0.000093  -0.000065  -0.000011
   53  H 13  S    0.000034   0.000064  -0.000004   0.000130  -0.007015
   54  H 14  S   -0.006401  -0.001386  -0.000219  -0.000047  -0.000003
   55  H 15  S   -0.006351  -0.001444  -0.000019  -0.000042   0.000096
   56  H 16  S   -0.002062  -0.000416  -0.000098   0.000108  -0.000034
   57  H 17  S    0.000028   0.000006  -0.000042  -0.006928  -0.000106
   58  H 18  S   -0.000069  -0.000066  -0.000092   0.000097  -0.000047
   59  H 19  S   -0.000034   0.000002   0.000270  -0.000106  -0.000002
   60  H 20  S   -0.000024  -0.000008  -0.006866  -0.000079   0.000001

                     11         12         13         14         15
                   -1.3155    -1.0943    -1.0174    -0.9712    -0.9379
                     A          A          A          A          A   
    1  C  1  S   -0.000756  -0.059792  -0.097205   0.080178  -0.074555
    2  C  1  S    0.001831   0.158781   0.262366  -0.221580   0.213974
    3  C  1  X   -0.000150  -0.014620  -0.077196   0.037635   0.031040
    4  C  1  Y    0.000283   0.018106   0.013058   0.005912   0.011117
    5  C  1  Z   -0.000465  -0.019508  -0.006879   0.003239  -0.000143
    6  C  2  S   -0.001090  -0.059954  -0.141189   0.073247   0.017155
    7  C  2  S    0.002398   0.149294   0.366195  -0.194307  -0.046121
    8  C  2  X    0.000194   0.025136   0.034048  -0.038684   0.069286
    9  C  2  Y    0.000317   0.004964   0.005857   0.012701  -0.019691
   10  C  2  Z   -0.001051  -0.025561  -0.051156   0.000082   0.062621
   11  C  3  S   -0.003421  -0.054250  -0.113337   0.017269   0.095707
   12  C  3  S    0.008302   0.143965   0.306966  -0.043915  -0.271862
   13  C  3  X    0.001834   0.024529   0.025629  -0.000125   0.000164
   14  C  3  Y    0.000693   0.004042  -0.014664   0.032089  -0.000991
   15  C  3  Z   -0.002164   0.017498   0.066825  -0.049803   0.005643
   16  C  4  S   -0.021302  -0.088122  -0.014265  -0.130114   0.075466
   17  C  4  S    0.053389   0.231617   0.041447   0.361139  -0.217562
   18  C  4  X    0.009364   0.046246  -0.027707   0.054105   0.019301
   19  C  4  Y   -0.013810  -0.007813  -0.007407   0.033867   0.034203
   20  C  4  Z   -0.021187   0.029507   0.019344   0.034510   0.045802
   21  C  5  S   -0.005510  -0.106522   0.005208  -0.125182  -0.055116
   22  C  5  S    0.012541   0.267440  -0.013591   0.334622   0.150096
   23  C  5  X   -0.002491  -0.001289  -0.025743  -0.053814   0.081896
   24  C  5  Y   -0.003078  -0.064584   0.007654  -0.024818  -0.042404
   25  C  5  Z   -0.004284  -0.014040   0.004011  -0.041014   0.073705
   26  C  6  S   -0.003185  -0.112357   0.030823  -0.014430  -0.131476
   27  C  6  S    0.007596   0.296680  -0.082973   0.035693   0.373977
   28  C  6  X   -0.001087  -0.027078  -0.031629  -0.054177  -0.007391
   29  C  6  Y    0.000187   0.009101   0.006928   0.091965   0.027268
   30  C  6  Z   -0.002646  -0.047522   0.048747  -0.002026   0.013674
   31  C  7  S   -0.005954  -0.101256   0.101132   0.099186  -0.000323
   32  C  7  S    0.014149   0.257806  -0.266172  -0.267061   0.004668
   33  C  7  X   -0.004223  -0.046549   0.031226   0.017624   0.013477
   34  C  7  Y    0.000794   0.025956  -0.006003   0.023982   0.041295
   35  C  7  Z   -0.005228  -0.010616   0.055130   0.063081   0.125890
   36  C  8  S   -0.021556  -0.079543   0.099515   0.095188   0.091779
   37  C  8  S    0.052420   0.199601  -0.258330  -0.252504  -0.248507
   38  C  8  X   -0.023003   0.006749  -0.022143  -0.042685   0.023233
   39  C  8  Y    0.014444   0.018337  -0.012353   0.011765  -0.015749
   40  C  8  Z   -0.004532   0.058981  -0.059447  -0.056301  -0.003620
   41  C  9  S   -0.127526  -0.035239   0.023030  -0.013454   0.067227
   42  C  9  S    0.295208   0.097807  -0.066228   0.038146  -0.198397
   43  C  9  X   -0.070962   0.037732  -0.057882  -0.056219  -0.050283
   44  C  9  Y   -0.002414   0.002292   0.024108   0.066474   0.006473
   45  C  9  Z   -0.136455   0.082481  -0.023017   0.056834  -0.106808
   46  O 10  S   -0.214565   0.037889  -0.015667   0.010110  -0.047851
   47  O 10  S    0.749549  -0.141356   0.060117  -0.039623   0.191029
   48  O 10  X    0.075702  -0.004105  -0.009715  -0.015670  -0.007895
   49  O 10  Y    0.001637   0.000513   0.004976   0.017472   0.001568
   50  O 10  Z    0.148323  -0.005450   0.002505   0.011471  -0.021781
   51  H 11  S    0.000194   0.030072   0.057132  -0.056170   0.068436
   52  H 12  S    0.000434   0.038724   0.056036  -0.065728   0.062399
   53  H 13  S    0.000317   0.029482   0.083916  -0.047173  -0.011492
   54  H 14  S    0.003555   0.033579   0.070855  -0.010569  -0.085024
   55  H 15  S    0.001358   0.026505   0.067949  -0.005373  -0.080715
   56  H 16  S    0.008757   0.040206   0.014604   0.093314  -0.063521
   57  H 17  S    0.001499   0.049773   0.001792   0.086020   0.045337
   58  H 18  S    0.000807   0.055401  -0.016423   0.003981   0.117757
   59  H 19  S    0.001597   0.048257  -0.060384  -0.074619   0.007670
   60  H 20  S    0.008698   0.034038  -0.057385  -0.068555  -0.068007

                     16         17         18         19         20
                   -0.8528    -0.7758    -0.7541    -0.7087    -0.6569
                     A          A          A          A          A   
    1  C  1  S   -0.130129   0.038300  -0.006709   0.067447   0.005555
    2  C  1  S    0.378998  -0.119076   0.025545  -0.216389  -0.016770
    3  C  1  X   -0.020648  -0.086073   0.073584  -0.148611   0.052500
    4  C  1  Y   -0.035494   0.059287  -0.005532   0.122702   0.056600
    5  C  1  Z    0.043114   0.005919  -0.013440  -0.005568   0.131463
    6  C  2  S   -0.001249  -0.060881   0.046742  -0.113922  -0.006812
    7  C  2  S    0.003527   0.181728  -0.141516   0.352218   0.024252
    8  C  2  X    0.141612  -0.028005  -0.002263  -0.048401  -0.064218
    9  C  2  Y   -0.045533   0.033578  -0.024048   0.096050   0.077511
   10  C  2  Z    0.116213   0.016162  -0.046890   0.096514   0.102712
   11  C  3  S    0.129193   0.014831  -0.038390   0.066097   0.002731
   12  C  3  S   -0.376308  -0.050291   0.118691  -0.212442  -0.007781
   13  C  3  X    0.048084   0.011343  -0.019363   0.065292  -0.105997
   14  C  3  Y    0.023797  -0.009897  -0.046477   0.045153   0.092985
   15  C  3  Z   -0.016269   0.100432  -0.077491   0.168765   0.000799
   16  C  4  S   -0.062798   0.079641   0.045083  -0.015120  -0.028327
   17  C  4  S    0.182730  -0.247582  -0.133446   0.048706   0.097464
   18  C  4  X    0.046352   0.083256   0.012835   0.039842  -0.175537
   19  C  4  Y    0.017672   0.014070  -0.150870  -0.044659   0.112959
   20  C  4  Z   -0.055161   0.121252  -0.115782  -0.115833  -0.089613
   21  C  5  S    0.006466  -0.098100   0.054277   0.048530   0.027107
   22  C  5  S   -0.018631   0.291436  -0.164901  -0.148965  -0.082675
   23  C  5  X   -0.069537   0.036944   0.134157   0.057078  -0.002434
   24  C  5  Y    0.022758   0.017276  -0.090408  -0.063146   0.128662
   25  C  5  Z   -0.059851   0.088979   0.047039  -0.062461   0.089261
   26  C  6  S    0.072488   0.009500  -0.083707  -0.031681  -0.033425
   27  C  6  S   -0.211203  -0.034352   0.259023   0.099268   0.112007
   28  C  6  X   -0.053969  -0.114127   0.028645   0.071459   0.175354
   29  C  6  Y   -0.024916   0.161960   0.025504  -0.024807   0.043309
   30  C  6  Z    0.035988   0.014692   0.055646  -0.057725   0.229723
   31  C  7  S    0.055340   0.076690   0.085747  -0.021689   0.025875
   32  C  7  S   -0.161048  -0.233631  -0.254362   0.069410  -0.079223
   33  C  7  X   -0.024689  -0.057618  -0.084395   0.000324   0.145892
   34  C  7  Y   -0.023542   0.011086   0.099469   0.071142  -0.062141
   35  C  7  Z   -0.061903  -0.127645   0.098516   0.085325   0.032343
   36  C  8  S   -0.038561  -0.086304  -0.005598   0.042311  -0.032392
   37  C  8  S    0.111441   0.256099   0.028470  -0.127779   0.113664
   38  C  8  X   -0.059134  -0.036434  -0.193865  -0.058451   0.041640
   39  C  8  Y    0.022242  -0.005624   0.084348   0.085722  -0.089235
   40  C  8  Z   -0.043963  -0.103993  -0.111158   0.049160  -0.197284
   41  C  9  S   -0.065261   0.002656  -0.105853  -0.054143  -0.013873
   42  C  9  S    0.199471  -0.008871   0.338974   0.176486   0.044220
   43  C  9  X    0.047216   0.153792   0.086504  -0.019415  -0.007789
   44  C  9  Y    0.014772  -0.122909  -0.061456   0.076496   0.001680
   45  C  9  Z    0.082054  -0.077694   0.080585   0.069601  -0.058132
   46  O 10  S    0.037838  -0.003275   0.058201   0.024420   0.028801
   47  O 10  S   -0.157354   0.014499  -0.255827  -0.109872  -0.137698
   48  O 10  X    0.020934   0.074784   0.070140   0.002314   0.048923
   49  O 10  Y    0.005818  -0.062117  -0.031613   0.046339   0.002382
   50  O 10  Z    0.033257  -0.043014   0.090659   0.069943   0.068169
   51  H 11  S    0.141846  -0.057289   0.018802  -0.120708   0.100728
   52  H 12  S    0.120694  -0.096644   0.026143  -0.177679  -0.081197
   53  H 13  S    0.001053   0.092546  -0.082335   0.232620   0.113175
   54  H 14  S   -0.117782  -0.053220   0.103416  -0.168119  -0.070803
   55  H 15  S   -0.140828  -0.033674   0.046984  -0.121410   0.095294
   56  H 16  S    0.055507  -0.135690  -0.101652  -0.001637   0.195211
   57  H 17  S   -0.009157   0.145640  -0.103339  -0.121313   0.072764
   58  H 18  S   -0.078006  -0.030859   0.137710   0.037893   0.258230
   59  H 19  S   -0.065387  -0.135381  -0.160711   0.015178   0.077884
   60  H 20  S    0.036218   0.135706  -0.013974  -0.121237   0.192895

                     21         22         23         24         25
                   -0.6044    -0.5931    -0.5874    -0.5544    -0.5396
                     A          A          A          A          A   
    1  C  1  S   -0.014343  -0.009299   0.000334   0.000460  -0.005143
    2  C  1  S    0.051357   0.027017   0.003418  -0.001115   0.025365
    3  C  1  X    0.124342   0.026003   0.135295   0.022873   0.155412
    4  C  1  Y    0.033849  -0.041011  -0.109015  -0.163598  -0.142897
    5  C  1  Z    0.233136   0.165856  -0.045830  -0.188731  -0.131248
    6  C  2  S    0.025568   0.007273   0.006314  -0.015832   0.008134
    7  C  2  S   -0.079321  -0.020363  -0.019573   0.052398  -0.026682
    8  C  2  X   -0.100311  -0.060462  -0.134235  -0.077008  -0.148279
    9  C  2  Y    0.107161  -0.004338   0.058089  -0.048046   0.067319
   10  C  2  Z    0.176855   0.122808  -0.038068  -0.111054  -0.093067
   11  C  3  S   -0.012195  -0.010652  -0.006178   0.004929  -0.001786
   12  C  3  S    0.044387   0.034175   0.017657  -0.026094   0.001954
   13  C  3  X   -0.236506  -0.129260  -0.103783  -0.044504  -0.115740
   14  C  3  Y    0.147725  -0.042034   0.113430   0.015735   0.164662
   15  C  3  Z   -0.058364  -0.076210   0.136104   0.162456   0.194069
   16  C  4  S   -0.003289   0.055949  -0.007926   0.020212   0.010098
   17  C  4  S    0.008544  -0.189974   0.022704  -0.070437  -0.034368
   18  C  4  X   -0.010325   0.105439   0.072969  -0.170415   0.080217
   19  C  4  Y    0.004740  -0.086773   0.123197   0.155216  -0.110220
   20  C  4  Z    0.012246  -0.067085   0.190242  -0.149743  -0.059939
   21  C  5  S    0.011584  -0.056423  -0.003910   0.010005  -0.017205
   22  C  5  S   -0.041117   0.192159   0.011974  -0.028353   0.056215
   23  C  5  X    0.042244   0.030740  -0.164425   0.053009   0.103792
   24  C  5  Y   -0.102718   0.188059   0.029036   0.236075  -0.171518
   25  C  5  Z   -0.051823   0.114455  -0.150605   0.144214   0.007999
   26  C  6  S   -0.009897   0.054736   0.011215  -0.001549  -0.007198
   27  C  6  S    0.032795  -0.191855  -0.034553   0.007340   0.021438
   28  C  6  X   -0.064357  -0.004083   0.078704   0.092206  -0.187356
   29  C  6  Y    0.015118   0.053729  -0.198099  -0.006380   0.081829
   30  C  6  Z   -0.070513  -0.037656  -0.095135   0.027147  -0.043921
   31  C  7  S    0.003687  -0.045458  -0.009939  -0.006528   0.018366
   32  C  7  S   -0.024343   0.151366   0.052172   0.011445  -0.061753
   33  C  7  X   -0.205310   0.133910   0.042317  -0.225714   0.062731
   34  C  7  Y    0.115688  -0.073323   0.045593   0.104314  -0.091109
   35  C  7  Z   -0.137892   0.001660   0.252990  -0.129168  -0.027793
   36  C  8  S   -0.020898   0.045758   0.022471  -0.020218   0.004384
   37  C  8  S    0.055370  -0.151599  -0.062458   0.058486  -0.013165
   38  C  8  X    0.037394  -0.071534  -0.196862  -0.014850   0.144850
   39  C  8  Y    0.061880   0.111347   0.087734   0.110683  -0.141305
   40  C  8  Z    0.160610   0.123849  -0.131035   0.212365  -0.100430
   41  C  9  S    0.042811  -0.080181  -0.012343  -0.009092  -0.022760
   42  C  9  S   -0.146953   0.279841   0.039798   0.029266   0.077334
   43  C  9  X    0.025884  -0.039319   0.247318   0.020259  -0.180580
   44  C  9  Y    0.028295   0.020998  -0.152626   0.055760   0.172825
   45  C  9  Z    0.057884  -0.013221  -0.120927  -0.037617  -0.046929
   46  O 10  S   -0.041042   0.049812   0.005354   0.009103   0.034295
   47  O 10  S    0.202028  -0.245434  -0.026159  -0.046547  -0.178370
   48  O 10  X   -0.095807   0.078910   0.238437   0.003327  -0.029772
   49  O 10  Y    0.028025   0.023977  -0.153363   0.083037   0.169061
   50  O 10  Z   -0.145925   0.225823  -0.088361   0.054702   0.248921
   51  H 11  S    0.228576   0.143388   0.000717  -0.148349  -0.056409
   52  H 12  S   -0.071955  -0.018390   0.130203   0.198071   0.208060
   53  H 13  S    0.140124   0.081057   0.039026  -0.035052   0.012456
   54  H 14  S   -0.077741   0.066910  -0.151179  -0.117919  -0.235403
   55  H 15  S    0.238591   0.098289   0.109450   0.022766   0.131343
   56  H 16  S    0.019380  -0.176611  -0.001080   0.190841  -0.112320
   57  H 17  S   -0.107576   0.259212  -0.024432   0.208441  -0.101284
   58  H 18  S   -0.051621  -0.096153  -0.063747   0.063454  -0.112446
   59  H 19  S   -0.212456   0.194908   0.074850  -0.223253   0.051564
   60  H 20  S   -0.075953  -0.217895  -0.049132  -0.160315   0.169695

                     26         27         28         29         30
                   -0.5170    -0.5079    -0.4880    -0.4776    -0.4470
                     A          A          A          A          A   
    1  C  1  S   -0.009319   0.009040   0.008103  -0.029637   0.009781
    2  C  1  S    0.036827  -0.019977  -0.031980   0.103539  -0.036556
    3  C  1  X   -0.103837   0.206090  -0.054968  -0.235334   0.139532
    4  C  1  Y    0.178189   0.097587  -0.153447   0.106928  -0.093100
    5  C  1  Z   -0.074873  -0.034927  -0.213779  -0.118609   0.144222
    6  C  2  S    0.013600   0.015961  -0.008843   0.005980  -0.003192
    7  C  2  S   -0.048238  -0.057044   0.037328  -0.026275   0.011722
    8  C  2  X    0.190658  -0.065617  -0.027646   0.275414  -0.169899
    9  C  2  Y    0.056532   0.211659   0.028538  -0.089650   0.022116
   10  C  2  Z    0.090308  -0.109715   0.307284  -0.049835  -0.119192
   11  C  3  S    0.009418  -0.000532   0.032607  -0.001515  -0.005691
   12  C  3  S   -0.023556   0.009704  -0.113518   0.009964   0.018341
   13  C  3  X   -0.030582   0.171401  -0.125416  -0.195241   0.160849
   14  C  3  Y    0.136133   0.177578  -0.006823   0.238790  -0.066131
   15  C  3  Z   -0.148014   0.100405  -0.223315   0.010827   0.129509
   16  C  4  S    0.009652  -0.008689   0.001913   0.001194   0.000426
   17  C  4  S   -0.027098   0.042903  -0.006916   0.002781   0.006565
   18  C  4  X   -0.268590  -0.046772  -0.039326  -0.027863  -0.255566
   19  C  4  Y    0.044247  -0.220735  -0.073079  -0.072586   0.045380
   20  C  4  Z    0.073383   0.099708  -0.111795  -0.067363  -0.181368
   21  C  5  S    0.010417   0.020069  -0.006979   0.006903  -0.001641
   22  C  5  S   -0.038539  -0.070441   0.027089  -0.024169   0.005111
   23  C  5  X   -0.001929  -0.174996   0.068464   0.071891   0.293818
   24  C  5  Y   -0.092771   0.025784   0.061921  -0.041706  -0.122217
   25  C  5  Z    0.148315   0.165852   0.080481   0.087742   0.168916
   26  C  6  S   -0.019107   0.011953  -0.005474   0.010886  -0.004893
   27  C  6  S    0.074946  -0.033727   0.016982  -0.042293   0.006416
   28  C  6  X   -0.211015  -0.062098  -0.013445  -0.069883  -0.204668
   29  C  6  Y   -0.087781  -0.104821  -0.033121   0.125453   0.217896
   30  C  6  Z   -0.126055   0.249057  -0.100843   0.102467  -0.159681
   31  C  7  S   -0.021615   0.001879   0.011261   0.004074  -0.002233
   32  C  7  S    0.078972  -0.013351  -0.026635  -0.016029   0.015121
   33  C  7  X   -0.117345  -0.060352  -0.013166   0.184816   0.141855
   34  C  7  Y   -0.000300  -0.192109  -0.039260  -0.086413  -0.044273
   35  C  7  Z    0.048214  -0.050984   0.179406  -0.057315   0.024485
   36  C  8  S    0.009484  -0.005616  -0.001263   0.004310   0.011397
   37  C  8  S   -0.035753   0.014568   0.016034  -0.015935  -0.039805
   38  C  8  X   -0.031516  -0.122744  -0.115762  -0.069144  -0.097448
   39  C  8  Y   -0.065267  -0.056075  -0.112443   0.142390   0.062043
   40  C  8  Z    0.043650   0.164287  -0.119273   0.006570  -0.051363
   41  C  9  S   -0.007871  -0.011114   0.009334  -0.015195   0.000791
   42  C  9  S    0.020155   0.045288  -0.028124   0.061111  -0.000912
   43  C  9  X   -0.125846  -0.088332  -0.050142   0.200065   0.106602
   44  C  9  Y   -0.181595  -0.181485  -0.112622   0.053844  -0.107741
   45  C  9  Z   -0.234458   0.181050   0.231627   0.128034   0.068473
   46  O 10  S    0.051711  -0.017245  -0.031198  -0.026260  -0.013447
   47  O 10  S   -0.276049   0.093056   0.171589   0.146754   0.078006
   48  O 10  X    0.178957  -0.173465  -0.259985   0.018429   0.045618
   49  O 10  Y   -0.153953  -0.143360  -0.093206   0.024257  -0.168421
   50  O 10  Z    0.308881  -0.039026  -0.170317  -0.266260  -0.204712
   51  H 11  S   -0.085352   0.033297  -0.240199  -0.138422   0.170247
   52  H 12  S   -0.096899   0.005508   0.214792  -0.053667   0.021215
   53  H 13  S   -0.009421   0.031959   0.264835  -0.215024   0.003403
   54  H 14  S   -0.014247  -0.118821   0.095327  -0.227878   0.010455
   55  H 15  S    0.082203  -0.092487   0.073510   0.275945  -0.179041
   56  H 16  S    0.163346  -0.119255   0.008732  -0.003914   0.260564
   57  H 17  S   -0.005215   0.104259   0.100160  -0.008291  -0.046505
   58  H 18  S   -0.201843   0.092799  -0.084742   0.027357  -0.202988
   59  H 19  S   -0.044966   0.033360   0.029193   0.181772   0.168512
   60  H 20  S   -0.026989  -0.118656   0.113313  -0.116700  -0.056124

                     31         32         33         34         35
                   -0.4434    -0.4185    -0.3647    -0.3155    -0.2824
                     A          A          A          A          A   
    1  C  1  S   -0.008528   0.002737  -0.002588  -0.000070   0.027064
    2  C  1  S    0.036444   0.004707  -0.005950   0.000918  -0.128635
    3  C  1  X    0.005198   0.182070  -0.027346  -0.011315  -0.180718
    4  C  1  Y    0.179263   0.130543  -0.190597   0.031835  -0.244614
    5  C  1  Z    0.118441  -0.149056   0.008187   0.012702   0.185313
    6  C  2  S    0.003258   0.020123   0.012902  -0.004043  -0.006617
    7  C  2  S   -0.017019  -0.071301  -0.049084   0.013479   0.027402
    8  C  2  X    0.070586  -0.028671   0.066349   0.011138   0.016095
    9  C  2  Y    0.007024   0.215055   0.127317  -0.005840  -0.110122
   10  C  2  Z   -0.165445   0.101977   0.044486  -0.020409   0.050024
   11  C  3  S   -0.016421  -0.003709  -0.013770  -0.002325  -0.012556
   12  C  3  S    0.058401   0.014474   0.076270   0.010720   0.070018
   13  C  3  X    0.027225   0.091805   0.228200  -0.007871   0.141550
   14  C  3  Y    0.054180  -0.069126   0.269905   0.023323   0.174079
   15  C  3  Z    0.120411  -0.169536  -0.130251   0.021545  -0.055974
   16  C  4  S    0.025356   0.008798  -0.017283  -0.030995  -0.008918
   17  C  4  S   -0.092519  -0.029836   0.092268   0.141380   0.051206
   18  C  4  X   -0.039499  -0.046332  -0.157499   0.115653  -0.147777
   19  C  4  Y   -0.066612  -0.011881  -0.286442  -0.180462  -0.144101
   20  C  4  Z   -0.122595  -0.023871   0.146442  -0.258014   0.181273
   21  C  5  S    0.005244   0.016577   0.012163   0.006351  -0.003719
   22  C  5  S   -0.011120  -0.061852  -0.043273  -0.019896   0.011216
   23  C  5  X   -0.015257  -0.072318  -0.017482   0.085591   0.039636
   24  C  5  Y    0.193580  -0.035283   0.031662   0.129816  -0.049392
   25  C  5  Z    0.128857   0.144071   0.090515  -0.002029   0.048275
   26  C  6  S   -0.003087  -0.007896   0.018742  -0.001576   0.005783
   27  C  6  S    0.022574   0.042337  -0.082601   0.009818  -0.047570
   28  C  6  X   -0.001685  -0.200250   0.198839   0.050944   0.163681
   29  C  6  Y   -0.259336  -0.131885   0.085329  -0.074169   0.155591
   30  C  6  Z   -0.221111   0.114267  -0.134581  -0.038778  -0.115415
   31  C  7  S   -0.011242   0.004107  -0.010049  -0.011982  -0.005122
   32  C  7  S    0.058253  -0.013301   0.039798   0.043418   0.020652
   33  C  7  X   -0.071054   0.012514   0.165557  -0.163043  -0.220331
   34  C  7  Y    0.165514  -0.056250   0.368979  -0.068743  -0.253546
   35  C  7  Z    0.280851  -0.011180  -0.089099   0.019805   0.162064
   36  C  8  S   -0.004210  -0.000249   0.005900   0.036783  -0.007050
   37  C  8  S    0.033598   0.000515  -0.024565  -0.164186   0.034033
   38  C  8  X   -0.034686   0.039126   0.245420   0.177406  -0.279688
   39  C  8  Y   -0.034451   0.098427   0.248195  -0.269691  -0.305580
   40  C  8  Z   -0.208066  -0.023969  -0.120564   0.079805   0.114665
   41  C  9  S   -0.003416  -0.002244   0.008101   0.000924   0.008857
   42  C  9  S    0.014516   0.011812  -0.029901  -0.001870  -0.037468
   43  C  9  X   -0.012384   0.261536  -0.030316  -0.107718   0.104052
   44  C  9  Y    0.122351   0.327838   0.012356   0.155335   0.084904
   45  C  9  Z    0.125297  -0.101863  -0.027487   0.053680  -0.092145
   46  O 10  S   -0.011981  -0.002950   0.001019  -0.000346  -0.000145
   47  O 10  S    0.070127   0.017805  -0.008534   0.001786  -0.001871
   48  O 10  X   -0.238277   0.256275   0.082726   0.585263   0.125350
   49  O 10  Y    0.224956   0.373225  -0.059921  -0.415493   0.399010
   50  O 10  Z   -0.046086  -0.184568  -0.007239  -0.296186  -0.041160
   51  H 11  S    0.138076  -0.084677  -0.003626   0.013356   0.075771
   52  H 12  S   -0.194799   0.047809   0.132762  -0.032529   0.025234
   53  H 13  S   -0.164203   0.189569   0.063706  -0.023045  -0.028258
   54  H 14  S   -0.094646   0.175732  -0.049642  -0.048366  -0.062111
   55  H 15  S    0.016339  -0.094150  -0.079806   0.020310  -0.044746
   56  H 16  S   -0.032460   0.015243  -0.118628  -0.109621  -0.033551
   57  H 17  S    0.242394   0.044809   0.078781   0.112477  -0.018986
   58  H 18  S   -0.221817  -0.075070   0.019724  -0.008982   0.083339
   59  H 19  S   -0.069747   0.032965  -0.066826  -0.115216  -0.004251
   60  H 20  S    0.189540  -0.025411   0.040847   0.120352  -0.004815

                     36         37         38         39         40
                   -0.2114     0.1941     0.2213     0.3783     0.3917
                     A          A          A          A          A   
    1  C  1  S   -0.028069   0.011024  -0.038343   0.030041  -0.039698
    2  C  1  S    0.104041  -0.079976   0.188912  -0.130639   0.202116
    3  C  1  X    0.094479  -0.164400   0.167472  -0.135330   0.261219
    4  C  1  Y    0.157519  -0.143710   0.212695  -0.347099   0.283413
    5  C  1  Z   -0.106276   0.093282  -0.156648   0.142642  -0.191518
    6  C  2  S    0.024990   0.022922  -0.003033  -0.002490  -0.005649
    7  C  2  S   -0.120326  -0.127065   0.017342   0.018534   0.043493
    8  C  2  X    0.253620   0.269301  -0.077352  -0.041515  -0.123401
    9  C  2  Y    0.491574   0.485209  -0.056209  -0.098485  -0.222283
   10  C  2  Z   -0.110706  -0.151521  -0.011107   0.041508   0.063114
   11  C  3  S   -0.030848   0.017660   0.032974  -0.051031  -0.009000
   12  C  3  S    0.117085  -0.112562  -0.154929   0.244584   0.059398
   13  C  3  X    0.158347  -0.145145  -0.150951   0.335270   0.021508
   14  C  3  Y    0.175399  -0.198723  -0.149275   0.446937   0.002650
   15  C  3  Z   -0.077967   0.151592   0.079177  -0.177730  -0.110202
   16  C  4  S    0.033836   0.014872  -0.015674   0.053209  -0.023183
   17  C  4  S   -0.134191  -0.094769   0.061118  -0.256035   0.134073
   18  C  4  X    0.101727   0.175828  -0.085267   0.296622  -0.058930
   19  C  4  Y    0.176544   0.190045  -0.110314   0.366907  -0.045087
   20  C  4  Z   -0.096179  -0.088364   0.077978  -0.295834   0.094707
   21  C  5  S   -0.024937   0.022704  -0.002366   0.007309   0.020402
   22  C  5  S    0.119016  -0.126020   0.011704  -0.040763  -0.112302
   23  C  5  X    0.363844  -0.399607  -0.009799  -0.080215  -0.040416
   24  C  5  Y    0.242207  -0.313071   0.050264   0.014835  -0.034646
   25  C  5  Z   -0.358103   0.368977  -0.072740  -0.003310   0.111130
   26  C  6  S    0.030972   0.016832   0.010645  -0.056179   0.020828
   27  C  6  S   -0.123066  -0.102663  -0.029618   0.287171  -0.087805
   28  C  6  X    0.160937   0.136659   0.077925  -0.325120   0.201331
   29  C  6  Y    0.160110   0.216221   0.060281  -0.261025   0.205435
   30  C  6  Z   -0.104534  -0.144614  -0.053765   0.242670  -0.139464
   31  C  7  S    0.009331  -0.017699   0.004961   0.000456  -0.000823
   32  C  7  S   -0.038582   0.084955  -0.022768  -0.003604   0.007015
   33  C  7  X   -0.012926   0.030029   0.317883   0.260143   0.185004
   34  C  7  Y   -0.080976   0.150136   0.398062   0.342592   0.234409
   35  C  7  Z   -0.013487   0.043401  -0.199905  -0.150012  -0.098806
   36  C  8  S   -0.004574   0.008418  -0.001049  -0.002259  -0.002056
   37  C  8  S    0.020412  -0.037502   0.004843   0.013252   0.011617
   38  C  8  X   -0.107946  -0.091922  -0.207903  -0.189251  -0.294674
   39  C  8  Y   -0.091688  -0.167602  -0.302286  -0.280187  -0.420414
   40  C  8  Z    0.043532   0.061490   0.120963   0.110085   0.163787
   41  C  9  S    0.009394  -0.019905  -0.001429  -0.001270   0.000227
   42  C  9  S   -0.040015   0.095794   0.005358   0.009846  -0.000489
   43  C  9  X    0.031322  -0.044628  -0.258875  -0.011099   0.358887
   44  C  9  Y   -0.041033   0.092034  -0.370366  -0.015093   0.502922
   45  C  9  Z   -0.048578   0.079452   0.145615  -0.005621  -0.191116
   46  O 10  S   -0.000156   0.002396  -0.000375   0.001606  -0.000478
   47  O 10  S   -0.001115  -0.010687   0.002605  -0.010827   0.002587
   48  O 10  X   -0.065691   0.021459   0.306236   0.000220  -0.256153
   49  O 10  Y    0.039768  -0.062893   0.426840   0.007849  -0.356939
   50  O 10  Z    0.049078  -0.040189  -0.160064  -0.019614   0.139575
   51  H 11  S   -0.002698   0.057157  -0.044857  -0.017265  -0.035023
   52  H 12  S    0.077209   0.150068  -0.028991  -0.083541  -0.045204
   53  H 13  S    0.052564   0.020218  -0.000702  -0.000241   0.013969
   54  H 14  S    0.070324   0.142213  -0.009649   0.020685  -0.080122
   55  H 15  S   -0.001653   0.074826   0.025006  -0.009857  -0.038242
   56  H 16  S    0.008047   0.066704   0.021728  -0.007629  -0.093492
   57  H 17  S   -0.063386   0.024059  -0.002775   0.003103   0.033353
   58  H 18  S    0.000883   0.072425  -0.058855  -0.073164  -0.076626
   59  H 19  S    0.024630  -0.034392   0.000905   0.003171  -0.017912
   60  H 20  S   -0.025950   0.047885  -0.013318  -0.017676  -0.011195

                     41         42         43         44         45
                    0.5297     0.5709     0.5867     0.6195     0.6258
                     A          A          A          A          A   
    1  C  1  S   -0.013689  -0.023576   0.000826  -0.006209   0.036299
    2  C  1  S    0.054110   0.152629  -0.004505   0.041873  -0.227772
    3  C  1  X    0.309450  -0.017041   0.037235  -0.039722  -0.021214
    4  C  1  Y    0.331566   0.065522  -0.146288  -0.060194  -0.191140
    5  C  1  Z   -0.216751   0.259037  -0.156143  -0.058450  -0.347556
    6  C  2  S   -0.034027  -0.020574   0.011701   0.002625   0.045140
    7  C  2  S    0.212433   0.127695  -0.073538  -0.018866  -0.285749
    8  C  2  X   -0.154850  -0.108298   0.084870  -0.044470   0.243258
    9  C  2  Y   -0.329676   0.133060  -0.081516  -0.003466  -0.212048
   10  C  2  Z    0.049855   0.186234  -0.127719  -0.004419  -0.374026
   11  C  3  S   -0.014430  -0.012458   0.023732   0.027329   0.030291
   12  C  3  S    0.057843   0.081332  -0.152141  -0.170222  -0.189534
   13  C  3  X    0.268423  -0.194756   0.151144   0.001964   0.259908
   14  C  3  Y    0.364255   0.171513  -0.041511   0.125937  -0.288856
   15  C  3  Z   -0.247657   0.135262  -0.033454   0.092074  -0.138136
   16  C  4  S    0.046076   0.000969   0.048445   0.106423  -0.009762
   17  C  4  S   -0.242604   0.016764  -0.294643  -0.623079   0.071351
   18  C  4  X    0.301714  -0.232619   0.108126  -0.218214  -0.177619
   19  C  4  Y    0.409259   0.301146  -0.080451   0.152869   0.145734
   20  C  4  Z   -0.143542   0.209873   0.116664   0.512791   0.109018
   21  C  5  S    0.010921  -0.045112   0.018492   0.004065  -0.051719
   22  C  5  S   -0.081761   0.282166  -0.118665  -0.028295   0.325455
   23  C  5  X   -0.258150  -0.022778   0.015575  -0.019697   0.000445
   24  C  5  Y   -0.145345   0.268096  -0.178575   0.147172   0.280264
   25  C  5  Z    0.235717   0.192122  -0.050137  -0.133197   0.166964
   26  C  6  S    0.042589  -0.052123  -0.066793  -0.013310   0.007584
   27  C  6  S   -0.223907   0.328907   0.386618   0.074667  -0.030694
   28  C  6  X    0.226283   0.205312   0.253817  -0.160398  -0.010616
   29  C  6  Y    0.421561   0.110381  -0.263914  -0.050367   0.131711
   30  C  6  Z   -0.226681   0.256912  -0.332461  -0.167589   0.320524
   31  C  7  S   -0.018252  -0.050756   0.024432   0.054545  -0.052284
   32  C  7  S    0.105000   0.307932  -0.132466  -0.363026   0.313322
   33  C  7  X   -0.196018   0.205680   0.360558  -0.194253   0.015640
   34  C  7  Y   -0.160162  -0.147344  -0.426843   0.121831   0.072536
   35  C  7  Z    0.146757   0.118368  -0.244142  -0.145910   0.192490
   36  C  8  S    0.015553   0.013114   0.024467   0.107474   0.001487
   37  C  8  S   -0.091045  -0.055303  -0.126812  -0.662226  -0.003195
   38  C  8  X    0.134350   0.218275   0.477078   0.090161  -0.066190
   39  C  8  Y    0.214245  -0.133739  -0.342044   0.044175   0.047923
   40  C  8  Z   -0.064294  -0.027068  -0.086288   0.391489   0.026845
   41  C  9  S   -0.020649  -0.091774  -0.093771  -0.123880  -0.019418
   42  C  9  S    0.118853   0.540276   0.553758   0.727465   0.112046
   43  C  9  X   -0.207097  -0.006449   0.316303   0.047808  -0.115307
   44  C  9  Y   -0.177212   0.052132  -0.205140   0.215382   0.106338
   45  C  9  Z    0.150681   0.142294   0.048990   0.410397   0.081378
   46  O 10  S    0.003506   0.018709   0.014192   0.006533   0.003863
   47  O 10  S   -0.021101  -0.116922  -0.084843  -0.025379  -0.025094
   48  O 10  X    0.094327  -0.055276  -0.129352   0.016976   0.019119
   49  O 10  Y    0.105695  -0.014131   0.061428  -0.075175  -0.033437
   50  O 10  Z   -0.085109  -0.164148  -0.074701  -0.057142  -0.051101
   51  H 11  S    0.075122  -0.318520   0.158381   0.045282   0.459487
   52  H 12  S    0.000285   0.133347  -0.222895  -0.089724  -0.241499
   53  H 13  S   -0.044212  -0.348184   0.224876  -0.008856   0.658629
   54  H 14  S   -0.008927   0.229095  -0.026035   0.225610  -0.287428
   55  H 15  S    0.070611  -0.286664   0.231556   0.030462   0.443451
   56  H 16  S    0.005853  -0.319489   0.335899   0.217376  -0.236604
   57  H 17  S   -0.040958  -0.514851   0.258476  -0.047139  -0.511000
   58  H 18  S    0.030555  -0.527775  -0.085613   0.194843  -0.235372
   59  H 19  S   -0.012190  -0.461568  -0.417991   0.427617  -0.171470
   60  H 20  S    0.089840  -0.137217  -0.388832   0.657610   0.088437

                     46         47         48         49         50
                    0.6607     0.6978     0.7140     0.7291     0.7432
                     A          A          A          A          A   
    1  C  1  S    0.026939  -0.102923  -0.055737   0.120620  -0.070411
    2  C  1  S   -0.166466   0.655554   0.347058  -0.770563   0.444607
    3  C  1  X    0.076815   0.237059  -0.202912   0.028173   0.268721
    4  C  1  Y    0.168654  -0.240084  -0.073761   0.407524  -0.217737
    5  C  1  Z    0.236342   0.324617  -0.166379   0.359534   0.098123
    6  C  2  S   -0.008928   0.053937   0.077831  -0.012909  -0.012342
    7  C  2  S    0.052161  -0.328267  -0.483352   0.080699   0.104604
    8  C  2  X    0.068634   0.142201  -0.062595   0.260689   0.046735
    9  C  2  Y   -0.035372  -0.024838   0.008969  -0.077575   0.064090
   10  C  2  Z    0.136681   0.041404  -0.078677   0.203055   0.016894
   11  C  3  S    0.002522  -0.062549  -0.127669  -0.091693  -0.073061
   12  C  3  S   -0.018308   0.388017   0.815545   0.589425   0.461003
   13  C  3  X    0.220709   0.169471  -0.402179   0.228732  -0.095392
   14  C  3  Y   -0.118746  -0.253664  -0.071976  -0.450634  -0.145671
   15  C  3  Z    0.061019   0.016056  -0.170736  -0.192257  -0.275096
   16  C  4  S    0.017254  -0.015890  -0.057361   0.025060   0.126610
   17  C  4  S   -0.116755   0.100132   0.372765  -0.139477  -0.789448
   18  C  4  X    0.441590   0.217668   0.028979  -0.178324  -0.111256
   19  C  4  Y   -0.309153   0.045458   0.186136   0.160689  -0.168620
   20  C  4  Z    0.181900   0.104578  -0.068707  -0.019410  -0.081230
   21  C  5  S    0.005897   0.044712   0.067052  -0.000161  -0.145018
   22  C  5  S   -0.043481  -0.279419  -0.433257   0.004026   0.923184
   23  C  5  X    0.296094   0.015613   0.009378  -0.150520  -0.107469
   24  C  5  Y   -0.090960   0.012889   0.033706   0.092673  -0.133639
   25  C  5  Z    0.097228   0.120938  -0.026389  -0.091708   0.019007
   26  C  6  S    0.070783  -0.090738   0.009015  -0.044839   0.116230
   27  C  6  S   -0.419007   0.573763  -0.049643   0.262815  -0.728687
   28  C  6  X   -0.009591   0.396113  -0.242271  -0.095118  -0.028910
   29  C  6  Y    0.086169   0.084728   0.209571  -0.082768  -0.250926
   30  C  6  Z    0.471099   0.094774  -0.053781  -0.186923  -0.115464
   31  C  7  S   -0.111345   0.088471  -0.075172   0.042364  -0.027501
   32  C  7  S    0.682962  -0.576850   0.474919  -0.257737   0.168300
   33  C  7  X    0.081339  -0.135256  -0.042875  -0.003727   0.105726
   34  C  7  Y    0.117166  -0.054891  -0.043081   0.015135  -0.001875
   35  C  7  Z    0.234858  -0.029391  -0.073871  -0.177787   0.146230
   36  C  8  S    0.091528  -0.030933   0.108516   0.006102  -0.032931
   37  C  8  S   -0.552583   0.181334  -0.696682  -0.043470   0.220945
   38  C  8  X    0.029505   0.000690   0.077810   0.083080  -0.050420
   39  C  8  Y    0.007182   0.152476  -0.026259  -0.091736  -0.021459
   40  C  8  Z    0.172789   0.201103   0.019321  -0.017029  -0.059343
   41  C  9  S    0.002519   0.035221  -0.036999  -0.046858  -0.023037
   42  C  9  S   -0.027588  -0.224696   0.220152   0.283360   0.136859
   43  C  9  X    0.305534  -0.047616   0.275330  -0.029271  -0.200201
   44  C  9  Y   -0.173217  -0.009658  -0.327718  -0.018714   0.187720
   45  C  9  Z    0.062110   0.141504  -0.059017   0.058919   0.082442
   46  O 10  S   -0.017169  -0.021041   0.005270   0.010530   0.008715
   47  O 10  S    0.122559   0.143929  -0.033196  -0.070503  -0.059245
   48  O 10  X    0.000083   0.110699  -0.094982  -0.030999   0.024200
   49  O 10  Y    0.053029   0.008930   0.105646   0.002448  -0.064348
[...]
   29  C  6  Y   -0.140657  -0.091310   0.089665   0.416008   0.023781
   30  C  6  Z   -0.168869  -0.120786   0.011008   0.431840   0.001804
   31  C  7  S    0.036808   0.026177   0.025533  -0.082066  -0.016135
   32  C  7  S   -0.215822  -0.157240  -0.177086   0.497342   0.120918
   33  C  7  X   -0.096001   0.021402  -0.434450  -0.041972   0.150665
   34  C  7  Y    0.054088  -0.083618   0.378251   0.293864  -0.078876
   35  C  7  Z   -0.099300  -0.064629   0.064713   0.328362   0.053659
   36  C  8  S   -0.048150  -0.022202   0.012490  -0.040390  -0.093486
   37  C  8  S    0.268134   0.131685  -0.102753   0.244384   0.574031
   38  C  8  X   -0.258488  -0.024943  -0.335679  -0.285798  -0.145387
   39  C  8  Y    0.044406  -0.032966   0.400305   0.193806  -0.112854
   40  C  8  Z   -0.027943  -0.018525   0.147954  -0.027649  -0.241775
   41  C  9  S    0.114232  -0.047285   0.052884   0.079475   0.096739
   42  C  9  S   -0.659031   0.283592  -0.317056  -0.473730  -0.565878
   43  C  9  X    0.060471  -0.154986  -0.306719  -0.198341  -0.028159
   44  C  9  Y   -0.026971   0.162400   0.147440   0.085930  -0.057383
   45  C  9  Z   -0.325224   0.030766   0.111109  -0.089115  -0.331411
   46  O 10  S   -0.013260   0.020001  -0.013322  -0.011653  -0.004365
   47  O 10  S    0.074795  -0.132215   0.086182   0.068660   0.015161
   48  O 10  X   -0.012403  -0.031827   0.153504   0.076172  -0.023321
   49  O 10  Y   -0.011092  -0.051821  -0.035202  -0.021668   0.016772
   50  O 10  Z    0.138901  -0.190522   0.058906   0.069036   0.044847
   51  H 11  S    0.242069   0.115254  -0.220167   0.203344  -0.431570
   52  H 12  S   -0.206641  -0.153981   0.190937  -0.159587   0.359729
   53  H 13  S    0.232526  -0.184602  -0.262118   0.195983  -0.562742
   54  H 14  S   -0.405692   0.136360   0.174833  -0.143967  -0.035963
   55  H 15  S    0.200741  -0.449753  -0.184363   0.090324  -0.240782
   56  H 16  S    0.160547  -0.519065  -0.077635  -0.308072  -0.142599
   57  H 17  S    0.319165  -0.294128   0.054606  -0.601750  -0.011855
   58  H 18  S    0.384383   0.091338   0.441080  -0.356705  -0.102973
   59  H 19  S    0.268078   0.043254   0.655335  -0.136167  -0.223885
   60  H 20  S   -0.095437  -0.110892   0.543062   0.076728  -0.527429

                     46         47         48         49         50
                    0.6749     0.6872     0.6919     0.7025     0.7183
                     A          A          A          A          A   
    1  C  1  S    0.000557   0.027614   0.068570   0.188225  -0.009689
    2  C  1  S   -0.002259  -0.157087  -0.454028  -1.207936   0.075093
    3  C  1  X   -0.077748   0.059908  -0.080885  -0.257425   0.130741
    4  C  1  Y   -0.092011  -0.076945   0.158942   0.363374  -0.136957
    5  C  1  Z    0.050462   0.122862   0.231993  -0.187290   0.133183
    6  C  2  S   -0.022199  -0.129677   0.026177  -0.068458  -0.084138
    7  C  2  S    0.136275   0.816926  -0.152475   0.389615   0.546529
    8  C  2  X    0.191510  -0.158921   0.133406   0.004383  -0.146022
    9  C  2  Y    0.189675   0.261887  -0.142194  -0.056609   0.145523
   10  C  2  Z   -0.034693  -0.042265   0.234363  -0.016819  -0.009904
   11  C  3  S    0.088498   0.042759  -0.021070   0.060320   0.020060
   12  C  3  S   -0.502243  -0.244845   0.126158  -0.371228  -0.122082
   13  C  3  X   -0.660545  -0.136368   0.314900   0.009099   0.175150
   14  C  3  Y   -0.523523  -0.001396  -0.497362   0.245793  -0.052700
   15  C  3  Z    0.290797  -0.424124   0.193600  -0.049127  -0.386352
   16  C  4  S   -0.124212   0.032128   0.093293  -0.030307   0.034156
   17  C  4  S    0.719988  -0.203872  -0.556530   0.179395  -0.212046
   18  C  4  X   -0.424402   0.137674  -0.433769   0.101062   0.217823
   19  C  4  Y   -0.525286  -0.283706  -0.290038   0.075921  -0.007664
   20  C  4  Z    0.441394   0.052490  -0.020225   0.033053   0.058635
   21  C  5  S    0.044590  -0.039325  -0.133150   0.043974   0.012912
   22  C  5  S   -0.270827   0.251350   0.833160  -0.272748  -0.054975
   23  C  5  X    0.120900   0.092651  -0.296269   0.078104  -0.149489
   24  C  5  Y    0.132861   0.012293   0.134067  -0.019896   0.171614
   25  C  5  Z   -0.167426  -0.005864  -0.069924   0.006675   0.114754
   26  C  6  S   -0.041795   0.083917   0.024920  -0.024738  -0.133396
   27  C  6  S    0.257106  -0.522282  -0.139972   0.150683   0.855963
   28  C  6  X   -0.015293  -0.040705   0.083794   0.002578   0.354799
   29  C  6  Y   -0.135012   0.090799  -0.094991  -0.001691  -0.050997
   30  C  6  Z    0.047836   0.105774  -0.015460   0.001628   0.094787
   31  C  7  S    0.037713  -0.102057   0.008716   0.022153   0.135491
   32  C  7  S   -0.234950   0.628802  -0.059428  -0.133886  -0.873906
   33  C  7  X    0.052533   0.077464   0.050142  -0.018839  -0.182057
   34  C  7  Y   -0.012221   0.066723   0.010678  -0.002709  -0.040718
   35  C  7  Z   -0.091603   0.072314   0.020424  -0.020176  -0.113796
   36  C  8  S   -0.012381   0.118167  -0.010860  -0.022029  -0.030692
   37  C  8  S    0.077801  -0.731301   0.074963   0.139328   0.180003
   38  C  8  X    0.014072   0.101368  -0.005117  -0.010122   0.091165
   39  C  8  Y   -0.059137  -0.006334   0.010297   0.001640   0.182133
   40  C  8  Z    0.072179   0.162380   0.049252  -0.037450   0.214759
   41  C  9  S    0.014823  -0.034727  -0.037304   0.019707   0.020847
   42  C  9  S   -0.093305   0.204742   0.221924  -0.116283  -0.132626
   43  C  9  X    0.162080   0.385761  -0.095457  -0.037533  -0.031305
   44  C  9  Y    0.115532  -0.187300   0.190802   0.008034   0.003623
   45  C  9  Z   -0.023175  -0.019066   0.063959  -0.012168   0.130817
   46  O 10  S   -0.009109  -0.001847   0.011499  -0.003941  -0.015593
   47  O 10  S    0.063105   0.019680  -0.075738   0.025188   0.108606
   48  O 10  X   -0.022206  -0.084898  -0.013699   0.021826   0.085428
   49  O 10  Y   -0.058077   0.045469  -0.073825   0.001251  -0.006228
   50  O 10  Z    0.094903   0.072623  -0.100881   0.024857   0.106527
   51  H 11  S   -0.036144  -0.036414   0.034738   0.862419  -0.185263
   52  H 12  S    0.005774   0.101104   0.502963   0.778626  -0.071432
   53  H 13  S   -0.097484  -0.590066   0.060314  -0.190317  -0.381137
   54  H 14  S   -0.016393  -0.075760  -0.414981   0.309413  -0.158569
   55  H 15  S   -0.146731  -0.020828   0.391048   0.097383   0.213277
   56  H 16  S   -0.056185   0.399824   0.231916  -0.090399   0.220233
   57  H 17  S    0.175312  -0.116841  -0.543497   0.169674  -0.163953
   58  H 18  S   -0.117128   0.210596   0.074047  -0.085421  -0.691037
   59  H 19  S    0.085971  -0.382415  -0.015424   0.086796   0.571866
   60  H 20  S   -0.040826   0.455020   0.005553  -0.092872   0.123242

                     51         52         53         54         55
                    0.7406     0.7831     0.7977     0.8486     0.9145
                     A          A          A          A          A   
    1  C  1  S    0.044116   0.006521   0.020230  -0.001191   0.005165
    2  C  1  S   -0.302079  -0.041017  -0.137100   0.007026  -0.039812
    3  C  1  X   -0.095754   0.162040   0.034138   0.011777   0.036983
    4  C  1  Y    0.085411  -0.169547  -0.078503   0.024805  -0.031224
    5  C  1  Z    0.080122   0.270338  -0.000839   0.139442   0.077458
    6  C  2  S    0.026513  -0.074855  -0.038254   0.002358  -0.007343
    7  C  2  S   -0.163453   0.504085   0.258324  -0.014568   0.055420
    8  C  2  X    0.175433  -0.038324   0.024797   0.004164   0.025765
    9  C  2  Y   -0.097830   0.029824   0.024567  -0.048822  -0.055997
   10  C  2  Z    0.081876   0.015379   0.014468  -0.050657  -0.025078
   11  C  3  S   -0.155974   0.081049  -0.079310   0.019188   0.010851
   12  C  3  S    0.992604  -0.509093   0.518937  -0.128599  -0.071880
   13  C  3  X   -0.258777   0.475224  -0.206946   0.143396   0.080106
   14  C  3  Y   -0.355898  -0.389803  -0.195967  -0.020353  -0.032502
   15  C  3  Z   -0.212323  -0.207752  -0.408924   0.028417  -0.020410
   16  C  4  S   -0.048065  -0.078535   0.084820   0.026652  -0.045546
   17  C  4  S    0.315919   0.501431  -0.529644  -0.168501   0.299063
   18  C  4  X    0.022895  -0.218357   0.169541  -0.316788  -0.140828
   19  C  4  Y    0.363428   0.488071   0.157066   0.077124   0.314456
   20  C  4  Z   -0.184342   0.131633   0.580868  -0.125074  -0.059455
   21  C  5  S    0.041313   0.075184   0.044970   0.024861  -0.050047
   22  C  5  S   -0.266286  -0.506923  -0.305663  -0.174585   0.375031
   23  C  5  X   -0.063038   0.029669   0.179995  -0.116076   0.418874
   24  C  5  Y   -0.019943   0.024683  -0.112916  -0.459980  -0.002021
   25  C  5  Z    0.089544   0.034618  -0.091226  -0.479242   0.253197
   26  C  6  S   -0.042801   0.000569   0.030141  -0.049510   0.057618
   27  C  6  S    0.279261  -0.002598  -0.208213   0.332598  -0.436784
   28  C  6  X   -0.019741  -0.356322  -0.139909   0.207000   0.142855
   29  C  6  Y    0.043887   0.038620   0.083646   0.186211  -0.400946
   30  C  6  Z   -0.012872  -0.103535   0.019237   0.247545  -0.389811
   31  C  7  S   -0.000153  -0.027537  -0.005867  -0.045449   0.077247
   32  C  7  S   -0.002974   0.192136   0.041716   0.306097  -0.570113
   33  C  7  X   -0.129715  -0.098885   0.194486   0.461981   0.451616
   34  C  7  Y   -0.067301   0.024345   0.087379  -0.316021  -0.091091
   35  C  7  Z   -0.168221  -0.085226   0.283321   0.027093   0.314364
   36  C  8  S    0.086028   0.013450  -0.099365   0.012644  -0.052250
   37  C  8  S   -0.567058  -0.092935   0.673128  -0.085205   0.394837
   38  C  8  X    0.080949  -0.030480  -0.021794  -0.395251   0.353684
   39  C  8  Y    0.041657  -0.161661  -0.032699   0.512712   0.171758
   40  C  8  Z    0.130205  -0.180664  -0.171000   0.246771   0.370979
   41  C  9  S   -0.027605  -0.045286  -0.017557   0.043734   0.065399
   42  C  9  S    0.163418   0.292333   0.104776  -0.287703  -0.434758
   43  C  9  X    0.235527  -0.100871  -0.482915  -0.201371   0.330648
   44  C  9  Y   -0.306863   0.020663   0.360224   0.147898  -0.138624
   45  C  9  Z   -0.054705  -0.093146   0.410408   0.143402   0.583861
   46  O 10  S    0.002264   0.023545  -0.006897  -0.015547  -0.071044
   47  O 10  S   -0.014110  -0.166574   0.052049   0.109370   0.521448
   48  O 10  X   -0.067275  -0.082705   0.170329   0.119351   0.251691
   49  O 10  Y    0.101021   0.009463  -0.099793  -0.040677   0.016472
   50  O 10  Z    0.010021  -0.185584  -0.025254   0.083542   0.510137
   51  H 11  S    0.090911  -0.251912   0.048381  -0.112950  -0.052439
   52  H 12  S    0.302205   0.023492   0.027386   0.075871   0.026853
   53  H 13  S    0.155567  -0.267569  -0.116289   0.047200   0.027880
   54  H 14  S   -0.807133  -0.173733  -0.527286   0.043901   0.007985
   55  H 15  S   -0.500175   0.738251  -0.323486   0.160546   0.099576
   56  H 16  S   -0.386623  -0.627213   0.356726  -0.165721  -0.334842
   57  H 17  S    0.085856   0.204822   0.271311   0.562525  -0.177274
   58  H 18  S   -0.125812   0.256523   0.132163  -0.424760   0.369519
   59  H 19  S    0.091815   0.012555  -0.156021  -0.561184  -0.161705
   60  H 20  S    0.345847  -0.151943  -0.392733   0.546351   0.064999

                     56         57         58         59         60
                    0.9412     0.9768     1.0246     1.0500     1.1410
                     A          A          A          A          A   
    1  C  1  S    0.008972  -0.005825   0.017932  -0.110855  -0.006866
    2  C  1  S   -0.063064   0.046078  -0.143385   0.895246   0.057379
    3  C  1  X    0.101075  -0.050075   0.096192  -0.634774  -0.035138
    4  C  1  Y   -0.344462   0.105516  -0.117082   0.848466   0.047876
    5  C  1  Z   -0.852237   0.154440   0.107379  -0.339549  -0.025772
    6  C  2  S   -0.016304   0.003578  -0.019767   0.104497   0.006337
    7  C  2  S    0.141932  -0.038560   0.155814  -0.851383  -0.050154
    8  C  2  X   -0.047366  -0.020192   0.105582  -0.662885  -0.049191
    9  C  2  Y    0.266507  -0.013196  -0.156161   0.912494   0.061183
   10  C  2  Z    0.866352  -0.220183  -0.026579  -0.312780  -0.004213
   11  C  3  S   -0.055919   0.009235   0.002198   0.011101   0.001958
   12  C  3  S    0.366000  -0.062529  -0.008799  -0.070795  -0.013224
   13  C  3  X    0.172068  -0.080545  -0.093277   0.128383   0.047954
   14  C  3  Y   -0.201458   0.071921   0.022890  -0.270702  -0.058036
   15  C  3  Z    0.305914  -0.120276  -0.039930  -0.192796  -0.016571
   16  C  4  S   -0.004544  -0.002939  -0.032563  -0.011373   0.016742
   17  C  4  S    0.032288   0.011914   0.219844   0.076127  -0.111876
   18  C  4  X   -0.040875   0.230285   0.230480  -0.006060  -0.228447
   19  C  4  Y    0.039378  -0.071518   0.064193   0.062957   0.162763
   20  C  4  Z   -0.051694   0.123568   0.242503   0.077840   0.077315
   21  C  5  S   -0.001160   0.036380  -0.052779  -0.003428  -0.069294
   22  C  5  S    0.005529  -0.275136   0.448677   0.029762   0.571411
   23  C  5  X   -0.045201  -0.308929   0.780415   0.116406   0.544072
   24  C  5  Y    0.058037   0.514925  -0.075696  -0.015491  -0.363555
   25  C  5  Z    0.048379   0.342614   0.228780   0.042524  -0.122492
   26  C  6  S   -0.016142  -0.074575   0.048141   0.007754   0.058750
   27  C  6  S    0.112266   0.554261  -0.416305  -0.066506  -0.480618
   28  C  6  X   -0.043192  -0.421488   0.595485   0.048876   0.751647
   29  C  6  Y   -0.106135  -0.253527  -0.541553  -0.073349  -0.148503
   30  C  6  Z   -0.124595  -0.409587  -0.258105  -0.057354   0.216662
   31  C  7  S   -0.007398  -0.043504   0.032199   0.013709  -0.069703
   32  C  7  S    0.061579   0.371845  -0.231248  -0.106052   0.576532
   33  C  7  X    0.090297   0.077940   0.109639   0.083947  -0.671031
   34  C  7  Y   -0.194595  -0.571264  -0.283453  -0.020857  -0.056004
   35  C  7  Z   -0.143853  -0.609167  -0.220331   0.040058  -0.543461
   36  C  8  S    0.011110   0.045120   0.000187  -0.009088   0.071713
   37  C  8  S   -0.090718  -0.371670  -0.015851   0.071675  -0.596450
   38  C  8  X   -0.180503  -0.617980  -0.281121   0.011636  -0.299818
   39  C  8  Y    0.106908   0.107926   0.329686   0.075360  -0.343388
   40  C  8  Z   -0.021396  -0.399450   0.199683   0.106681  -0.702383
   41  C  9  S    0.015020   0.061012  -0.038887  -0.011674   0.015306
   42  C  9  S   -0.102037  -0.412348   0.267048   0.080698  -0.109949
   43  C  9  X   -0.057473  -0.098453  -0.480355  -0.084144   0.161764
   44  C  9  Y    0.032729   0.176972   0.093397   0.015639   0.082306
   45  C  9  Z    0.022096   0.249316  -0.591538  -0.099568   0.525644
   46  O 10  S   -0.003873  -0.029807   0.064257   0.011979  -0.040319
   47  O 10  S    0.026973   0.218215  -0.486335  -0.091031   0.313805
   48  O 10  X    0.025495   0.137757  -0.190159  -0.036006   0.149288
   49  O 10  Y   -0.008040  -0.047991   0.003069  -0.000628  -0.025743
   50  O 10  Z    0.021071   0.197631  -0.473617  -0.088944   0.278322
   51  H 11  S    0.595700  -0.107555  -0.050133   0.103700   0.007560
   52  H 12  S   -0.584240   0.120416   0.020280   0.103395   0.000172
   53  H 13  S   -0.615122   0.123888   0.060437  -0.143093  -0.020413
   54  H 14  S   -0.127714   0.028451  -0.003683  -0.207902  -0.026301
   55  H 15  S    0.058550  -0.056482  -0.057472   0.155347   0.042875
   56  H 16  S   -0.056914   0.148295   0.026202  -0.045108  -0.091416
   57  H 17  S   -0.052772  -0.384723  -0.069984   0.000714   0.127810
   58  H 18  S    0.067100   0.269545   0.085238   0.038359  -0.238272
   59  H 19  S   -0.128131  -0.292678  -0.058355  -0.025972   0.227088
   60  H 20  S    0.113727   0.112777   0.297603   0.056784  -0.210202

 THE NUCLEAR REPULSION AT THE IRC POINT IS      495.1980854466

 * * * IRC RESTART INFORMATION * * *
 COORDINATES FOR $DATA AND ENTIRE $IRC GROUP FOLLOW

 COORDINATES OF SYMMETRY UNIQUE ATOMS (ANGS)
   ATOM   CHARGE       X              Y              Z
 ------------------------------------------------------------
 C           6.0   4.6246595739  -2.4728126138   2.3353634570
 C           6.0   3.8814969302  -1.4704903430   1.9399869069
 C           6.0   3.4988066661  -1.1991382071   0.4873388385
 C           6.0   4.4534626809  -0.1754896660  -0.2538167330
 C           6.0   5.5548117937   0.3499152404   0.6639073788
 C           6.0   6.7620190116  -0.1741360489   0.6805002940
 C           6.0   7.1324810700  -1.2783012358  -0.2431629273
 C           6.0   6.3523662896  -1.6171767874  -1.2520317420
 C           6.0   5.0588402093  -0.8736711294  -1.5013759037
 O           8.0   4.5180722719  -0.8381821742  -2.5971942523
 H           1.0   4.8831381517  -2.6186242905   3.3749844472
 H           1.0   5.0176952752  -3.2065928928   1.6447766430
 H           1.0   3.5130440806  -0.7521198297   2.6640376253
 H           1.0   3.4997001435  -2.1403708142  -0.0577877397
 H           1.0   2.4830507351  -0.8109203014   0.4510327906
 H           1.0   3.8476073766   0.6603900453  -0.6019939504
 H           1.0   5.2817345845   1.1511223463   1.3405120141
 H           1.0   7.5222489476   0.1835365027   1.3626341766
 H           1.0   8.0813407868  -1.7755230104  -0.0756036384
 H           1.0   6.6277022234  -2.3834243691  -1.9653400005
 $IRC   PACE=GS2        STRIDE= 0.10000   NPOINT=??
        STOTAL=  9.998309   NEXTPT= 101
        NPRT= 0   NPUN= 0   SADDLE=.FALSE.
        GA(   1)= 1.806758484E-03, 1.048031196E-03,-4.759858909E-04
        GA(   4)=-1.570840944E-04,-2.441838352E-04,-1.425943499E-04
        GA(   7)=-1.019857621E-04,-1.476009002E-04,-1.683512180E-04
        GA(  10)=-2.155952567E-04, 5.817580493E-05,-8.192641281E-05
        GA(  13)=-2.113456014E-04, 3.916336694E-05,-5.695533399E-05
        GA(  16)=-4.318920478E-04,-3.681497211E-04, 2.888945165E-04
        GA(  19)=-6.907795572E-04,-7.761675314E-04, 6.055498306E-04
        GA(  22)=-5.463507759E-04,-5.441660105E-04, 4.402908731E-04
        GA(  25)=-7.660765088E-05, 1.227623697E-04,-2.786041329E-05
        GA(  28)= 5.575607683E-04, 8.744794438E-04,-3.583750181E-04
        GA(  31)= 1.419661018E-04, 8.109753214E-05,-5.925000176E-05
        GA(  34)= 2.881826851E-04, 2.001140263E-04,-4.912559820E-05
        GA(  37)=-1.333426057E-04,-1.345541566E-04,-1.164734691E-05
        GA(  40)= 3.870057758E-06,-1.919148002E-06,-1.664030740E-05
        GA(  43)=-1.916216216E-05,-2.156055668E-05,-1.739900786E-05
        GA(  46)=-2.584404152E-05, 1.025983427E-06,-3.739174244E-06
        GA(  49)=-7.279344640E-06, 2.489253671E-05,-2.712949174E-05
        GA(  52)=-3.547416278E-05,-4.183964110E-05, 1.983057756E-05
        GA(  55)=-8.701939959E-05,-1.020166790E-04, 8.992578938E-05
        GA(  58)=-5.857557502E-05,-6.758409944E-05, 5.248797269E-05
 $END   
 A GS2 RESTART ALSO REQUIRES THE UPDATED $HESS GROUP FROM THE PUNCH FILE
 ......DONE WITH THIS PORTION OF THE IRC......
 STEP CPU TIME =     0.02 TOTAL CPU TIME =        214.3 (      3.6 MIN)
 TOTAL WALL CLOCK TIME=        218.4 SECONDS, CPU UTILIZATION IS    98.14%
               580000  WORDS OF DYNAMIC MEMORY USED
 EXECUTION OF GAMESS TERMINATED NORMALLY Fri Nov  5 18:36:38 2021
 DDI: 263640 bytes (0.3 MB / 0 MWords) used by master data server.

 ----------------------------------------
 CPU timing information for all processes
 ========================================
 0: 197.91 + 17.219 = 214.311
 ----------------------------------------
 ddikick.x: exited gracefully.
----- accounting info -----
Files used on the master node chemcompute-node-0.novalocal were:
-rw-r--r--. 1 chemcomp chemcomp    60607 Nov  5 18:32 /scratch/301309/336318.F05
-rw-rw-r--. 1 chemcomp chemcomp 17101520 Nov  5 18:36 /scratch/301309/336318.F08
-rw-rw-r--. 1 chemcomp chemcomp 52428800 Nov  5 18:36 /scratch/301309/336318.F10
Fri Nov  5 18:36:41 UTC 2021
0.164u 0.090s 3:41.98 0.1%	0+0k 120+328io 0pf+0w
Finishing Up...
Looking for IR data...
Looking for Raman data...
vibramans not found
Looking for thermodynamics data...
Looking for UV-Vis data...
301309
