----- GAMESS execution script 'rungms' -----
This job is running on host chemcompute-node-0.novalocal
under operating system Linux at Sat Nov 13 06:51:19 UTC 2021
SLURM has assigned the following compute nodes to this run:
chemcompute-node-0
Available scratch disk space (Kbyte units) at beginning of the job is
Filesystem     1K-blocks     Used Available Use% Mounted on
/dev/sda1       62903276 16574000  46329276  27% /
GAMESS temporary binary files will be written to /scratch/305789
GAMESS supplementary output files will be written to /data/slurm/341667
Copying input file 341667.inp to your run's scratch directory...
The generated host list is
chemcompute-node-0.novalocal

 Distributed Data Interface kickoff program.
 Initiating 1 compute processes on 1 nodes to run the following command:
 /data/gamess-2019R1-ddi/gamess.00.x 341667 

          ******************************************************
          *         GAMESS VERSION = 30 JUN 2019 (R1)          *
          *             FROM IOWA STATE UNIVERSITY             *
          * M.W.SCHMIDT, K.K.BALDRIDGE, J.A.BOATZ, S.T.ELBERT, *
          *   M.S.GORDON, J.H.JENSEN, S.KOSEKI, N.MATSUNAGA,   *
          *          K.A.NGUYEN, S.J.SU, T.L.WINDUS,           *
          *       TOGETHER WITH M.DUPUIS, J.A.MONTGOMERY       *
          *         J.COMPUT.CHEM.  14, 1347-1363(1993)        *
          **************** 64 BIT LINUX VERSION ****************

  SINCE 1993, STUDENTS AND POSTDOCS WORKING AT IOWA STATE UNIVERSITY
  AND ALSO IN THEIR VARIOUS JOBS AFTER LEAVING ISU HAVE MADE IMPORTANT
  CONTRIBUTIONS TO THE CODE:
     IVANA ADAMOVIC, CHRISTINE AIKENS, YURI ALEXEEV, POOJA ARORA,
     ANDREY ASADCHEV, ROB BELL, PRADIPTA BANDYOPADHYAY, JONATHAN BENTZ,
     COLLEEN BERTONI, BRETT BODE, KURT BRORSEN, CALEB CARLIN, GALINA CHABAN,
     WEI CHEN, CHEOL HO CHOI, PAUL DAY, ALBERT DEFUSCO, NUWAN DESILVA,
     TIM DUDLEY, DMITRI FEDOROV, ALEX FINDLATER, GRAHAM FLETCHER, 
     MARK FREITAG, KURT GLAESEMANN, ANASTASIA GUNINA,
     DAN KEMP, GRANT MERRILL, NORIYUKI MINEZAWA, JONATHAN MULLIN,
     TAKESHI NAGATA, SEAN NEDD, HEATHER NETZLOFF, BOSILJKA NJEGIC, RYAN OLSON,
     MIKE PAK, BUU PHAM,
     SPENCER PRUITT, LUKE ROSKOP, JIM SHOEMAKER, LYUDMILA SLIPCHENKO,
     TONY SMITH, SAROM SOK LEANG, JIE SONG, TETSUYA TAKETSUGU, SIMON WEBB,
     PENG XU, SOOHAENG YOO, FEDERICO ZAHARIEV

  ADDITIONAL CODE HAS BEEN PROVIDED BY COLLABORATORS IN OTHER GROUPS:
     IOWA STATE UNIVERSITY:
          JOE IVANIC, AARON WEST, LAIMUTIS BYTAUTAS, KLAUS RUEDENBERG
     UNIVERSITY OF TOKYO: KIMIHIKO HIRAO, TAKAHITO NAKAJIMA,
          TAKAO TSUNEDA, MUNEAKI KAMIYA, SUSUMU YANAGISAWA,
          KIYOSHI YAGI, MAHITO CHIBA, SEIKEN TOKURA, NAOAKI KAWAKAMI
     UNIVERSITY OF AARHUS: FRANK JENSEN
     UNIVERSITY OF IOWA: VISVALDAS KAIRYS, HUI LI
     NATIONAL INST. OF STANDARDS AND TECHNOLOGY: WALT STEVENS, DAVID GARMER
     UNIVERSITY OF PISA: BENEDETTA MENNUCCI, JACOPO TOMASI
     UNIVERSITY OF MEMPHIS: HENRY KURTZ, PRAKASHAN KORAMBATH
     UNIVERSITY OF ALBERTA: TOBY ZENG, MARIUSZ KLOBUKOWSKI
     UNIVERSITY OF NEW ENGLAND: MARK SPACKMAN
     MIE UNIVERSITY: HIROAKI UMEDA
     NAT. INST. OF ADVANCED INDUSTRIAL SCIENCE AND TECHNOLOGY: KAZUO KITAURA
     MICHIGAN STATE UNIVERSITY:
          KAROL KOWALSKI, MARTA WLOCH, JEFFREY GOUR, JESSE LUTZ,
          WEI LI, JUN SHEN, J. EMILIANO DEUSTUA, PIOTR PIECUCH
     UNIVERSITY OF MINNESOTA:
          YINAN SHU
     UNIVERSITY OF SILESIA: MONIKA MUSIAL, STANISLAW KUCHARSKI
     FACULTES UNIVERSITAIRES NOTRE-DAME DE LA PAIX:
          OLIVIER QUINET, BENOIT CHAMPAGNE
     UNIVERSITY OF CALIFORNIA - SANTA BARBARA: BERNARD KIRTMAN
     INSTITUTE FOR MOLECULAR SCIENCE:
          KAZUYA ISHIMURA, MICHIO KATOUDA, AND SHIGERU NAGASE
     UNIVERSITY OF NOTRE DAME: ANNA POMOGAEVA, DAN CHIPMAN
     KYUSHU UNIVERSITY:
          HARUYUKI NAKANO,
          FENG LONG GU, JACEK KORCHOWIEC, MARCIN MAKOWSKI, AND YURIKO AOKI,
          HIROTOSHI MORI AND EISAKU MIYOSHI
     PENNSYLVANIA STATE UNIVERSITY:
          TZVETELIN IORDANOV, CHET SWALINA, JONATHAN SKONE,
          SHARON HAMMES-SCHIFFER
     WASEDA UNIVERSITY:
          MASATO KOBAYASHI, TOMOKO AKAMA, TSUGUKI TOUMA,
          TAKESHI YOSHIKAWA, YASUHIRO IKABATA, JUNJI SEINO,
          YUYA NAKAJIMA, HIROMI NAKAI
     NANJING UNIVERSITY: SHUHUA LI
     UNIVERSITY OF NEBRASKA:
          PEIFENG SU, DEJUN SI, NANDUN THELLAMUREGE, YALI WANG, HUI LI
     UNIVERSITY OF ZURICH: ROBERTO PEVERATI, KIM BALDRIDGE
     N. COPERNICUS UNIVERSITY AND JACKSON STATE UNIVERSITY:
          MARIA BARYSZ
     UNIVERSITY OF COPENHAGEN: Jimmy Kromann, CASPER STEINMANN
     TOKYO INSTITUTE OF TECHNOLOGY: HIROYA NAKATA
     NAGOYA UNIVERSITY: YOSHIO NISHIMOTO, STEPHAN IRLE
     MOSCOW STATE UNIVERSITY: VLADIMIR MIRONOV
     A.N.NESMEYANOV INSTITUTE OF ORGANOELEMENT COMPOUNDS OF RUSSIAN ACADEMY OF SCIENCES:
          IGOR S. GERASIMOV

 EXECUTION OF GAMESS BEGUN Sat Nov 13 06:51:19 2021

            ECHO OF THE FIRST FEW INPUT CARDS -
 INPUT CARD>!File created by the GAMESS Input Deck Generator Plugin for Avogadro            
 INPUT CARD> $BASIS GBASIS=STO NGAUSS=3 $END                                                
 INPUT CARD> $CONTRL SCFTYP=UHF RUNTYP=OPTIMIZE NZVAR=1 mult=2  ICHARG=0 $END               
 INPUT CARD> $STATPT hssend=.t. OPTTOL=0.0005 NSTEP=50 $END                                 
 INPUT CARD> $STATPT HESS=calc ihrep=5 $END                                                 
 INPUT CARD> $FORCE NVIB=2 $END                                                             
 INPUT CARD> $ZMAT DLC=.t. auto=.t. nonvdw(1)=4,5,3,4 $END                                  
 INPUT CARD> $ZMAT IFZMAT(1)=1,4,5,1,3,4 fvalue(1)=1.98,1.98 $END                           
 INPUT CARD>                                                                                
 INPUT CARD>                                                                                
 INPUT CARD> $DATA                                                                          
 INPUT CARD>Title                                                                           
 INPUT CARD>C1                                                                              
 INPUT CARD>C     6.0    -1.75242    -0.00052    -0.05289                                   
 INPUT CARD>C     6.0    -0.80725    -1.15961    -0.25077                                   
 INPUT CARD>C     6.0     0.41599    -0.74699     0.57059                                   
 INPUT CARD>Br    35.0     1.94868    -0.00771    -0.44599                                  
 INPUT CARD>C     6.0     0.41959     0.72947     0.57752                                   
 INPUT CARD>C     6.0    -0.80159     1.15575    -0.23990                                   
 INPUT CARD>H     1.0    -2.12146    -0.00455     0.99883                                   
 INPUT CARD>H     1.0    -2.62081     0.00486    -0.74529                                   
 INPUT CARD>H     1.0    -0.52351    -1.22090    -1.32631                                   
 INPUT CARD>H     1.0    -1.23745    -2.13543     0.05810                                   
 INPUT CARD>H     1.0     0.48027    -1.09515     1.62601                                   
 INPUT CARD>H     1.0     0.48555     1.06738     1.63617                                   
 INPUT CARD>H     1.0    -0.51753     1.22576    -1.31482                                   
 INPUT CARD>H     1.0    -1.22703     2.13072     0.07813                                   
 INPUT CARD> $END                                                                           
    1000000 WORDS OF MEMORY AVAILABLE

     BASIS OPTIONS
     -------------
     GBASIS=STO          IGAUSS=       3      POLAR=NONE    
     NDFUNC=       0     NFFUNC=       0     DIFFSP=       F
     NPFUNC=       0      DIFFS=       F     BASNAM=        


     RUN TITLE
     ---------
 Title                                                                           

 THE POINT GROUP OF THE MOLECULE IS C1      
 THE ORDER OF THE PRINCIPAL AXIS IS     0

 ATOM      ATOMIC                      COORDINATES (BOHR)
           CHARGE         X                   Y                   Z
 C           6.0    -3.3115936154       -0.0009826575       -0.0999476075
 C           6.0    -1.5254813036       -2.1913451526       -0.4738865859
 C           6.0     0.7861071136       -1.4116064156        1.0782587513
 BR         35.0     3.6824712378       -0.0145697874       -0.8427988933
 C           6.0     0.7929101272        1.3784984163        1.0913545524
 C           6.0    -1.5147854545        2.1840508103       -0.4533452645
 H           1.0    -4.0089780939       -0.0085982532        1.8875150083
 H           1.0    -4.9526127659        0.0091840683       -1.4083938814
 H           1.0    -0.9892904518       -2.3071664584       -2.5063624748
 H           1.0    -2.3384414235       -4.0353775660        0.1097930799
 H           1.0     0.9075787001       -2.0695334155        3.0727133533
 H           1.0     0.9175564533        2.0170557248        3.0919129693
 H           1.0    -0.9779898904        2.3163505267       -2.4846495232
 H           1.0    -2.3187504787        4.0264769566        0.1476442914

          INTERNUCLEAR DISTANCES (ANGS.)
          ------------------------------

                1 C          2 C          3 C          4 BR         5 C     

   1 C       0.0000000    1.5086393 *  2.3765409 *  3.7219243    2.3765373 *
   2 C       1.5086393 *  0.0000000    1.5300992 *  2.9933484 *  2.3999633 *
   3 C       2.3765409 *  1.5300992 *  0.0000000    1.9821979 *  1.4764807 *
   4 BR      3.7219243    2.9933484 *  1.9821979 *  0.0000000    1.9822016 *
   5 C       2.3765373 *  2.3999633 *  1.4764807 *  1.9822016 *  0.0000000  
   6 C       1.5086453 *  2.3153924 *  2.3999614 *  2.9933422 *  1.5300885 *
   7 H       1.1145949 *  2.1500725 *  2.6782941 *  4.3189761    2.6782872 *
   8 H       1.1106520 *  2.2112305 *  3.3939612    4.5792988    3.3939532  
   9 H       2.1496850 *  1.1140247 *  2.1692120 *  2.8911099 *  2.8840855 *
  10 H       2.1989437 *  1.1102691 *  2.2190709 *  3.8642882    3.3501091  
  11 H       3.0003041    2.2768764 *  1.1132200 *  2.7625962 *  2.1052913 *
  12 H       3.0003073    3.1923908    2.1052881 *  2.7625999 *  1.1132267 *
  13 H       2.1496938 *  2.6279517 *  2.8840896 *  2.8911080 *  2.1692045 *
  14 H       2.1989508 *  3.3332660    3.3501114    3.8642876    2.2190650 *

                6 C          7 H          8 H          9 H         10 H     

   1 C       1.5086453 *  1.1145949 *  1.1106520 *  2.1496850 *  2.1989437 *
   2 C       2.3153924 *  2.1500725 *  2.2112305 *  1.1140247 *  1.1102691 *
   3 C       2.3999614 *  2.6782941 *  3.3939612    2.1692120 *  2.2190709 *
   4 BR      2.9933422 *  4.3189761    4.5792988    2.8911099 *  3.8642882  
   5 C       1.5300885 *  2.6782872 *  3.3939532    2.8840855 *  3.3501091  
   6 C       0.0000000    2.1500709 *  2.2112278 *  2.6279422 *  3.3332632  
   7 H       2.1500709 *  0.0000000    1.8142198 *  3.0723326    2.4914045 *
   8 H       2.2112278 *  1.8142198 *  0.0000000    2.4977468 *  2.6720707 *
   9 H       2.6279422 *  3.0723326    2.4977468 *  0.0000000    1.8062853 *
  10 H       3.3332632    2.4914045 *  2.6720707 *  1.8062853 *  0.0000000  
  11 H       3.1923872    2.8899415 *  4.0558332    3.1208301    2.5477610 *
  12 H       2.2768788 *  2.8899373 *  4.0558320    3.8769466    3.9644704  
  13 H       1.1140218 *  3.0723331    2.4977486 *  2.4466943 *  3.7014581  
  14 H       1.1102742 *  2.4913995 *  2.6720636 *  3.7014522    4.2662097  

               11 H         12 H         13 H         14 H     

   1 C       3.0003041    3.0003073    2.1496938 *  2.1989508 *
   2 C       2.2768764 *  3.1923908    2.6279517 *  3.3332660  
   3 C       1.1132200 *  2.1052881 *  2.8840896 *  3.3501114  
   4 BR      2.7625962 *  2.7625999 *  2.8911080 *  3.8642876  
   5 C       2.1052913 *  1.1132267 *  2.1692045 *  2.2190650 *
   6 C       3.1923872    2.2768788 *  1.1140218 *  1.1102742 *
   7 H       2.8899415 *  2.8899373 *  3.0723331    2.4913995 *
   8 H       4.0558332    4.0558320    2.4977486 *  2.6720636 *
   9 H       3.1208301    3.8769466    2.4466943 *  3.7014522  
  10 H       2.5477610 *  3.9644704    3.7014581    4.2662097  
  11 H       0.0000000    2.1625603 *  3.8769459    3.9644726  
  12 H       2.1625603 *  0.0000000    3.1208325    2.5477659 *
  13 H       3.8769459    3.1208325    0.0000000    1.8062814 *
  14 H       3.9644726    2.5477659 *  1.8062814 *  0.0000000  

  * ... LESS THAN  3.000


     ATOMIC BASIS SET
     ----------------
 THE CONTRACTED PRIMITIVE FUNCTIONS HAVE BEEN UNNORMALIZED
 THE CONTRACTED BASIS FUNCTIONS ARE NOW NORMALIZED TO UNITY

  SHELL TYPE  PRIMITIVE        EXPONENT          CONTRACTION COEFFICIENT(S)

 C         

      1   S       1            71.6168373    0.154328967295
      1   S       2            13.0450963    0.535328142282
      1   S       3             3.5305122    0.444634542185

      2   L       4             2.9412494   -0.099967229187    0.155916274999
      2   L       5             0.6834831    0.399512826089    0.607683718598
      2   L       6             0.2222899    0.700115468880    0.391957393099

 C         

      3   S       7            71.6168373    0.154328967295
      3   S       8            13.0450963    0.535328142282
      3   S       9             3.5305122    0.444634542185

      4   L      10             2.9412494   -0.099967229187    0.155916274999
      4   L      11             0.6834831    0.399512826089    0.607683718598
      4   L      12             0.2222899    0.700115468880    0.391957393099

 C         

      5   S      13            71.6168373    0.154328967295
      5   S      14            13.0450963    0.535328142282
      5   S      15             3.5305122    0.444634542185

      6   L      16             2.9412494   -0.099967229187    0.155916274999
      6   L      17             0.6834831    0.399512826089    0.607683718598
      6   L      18             0.2222899    0.700115468880    0.391957393099

 BR        

      7   S      19          2629.9974710    0.154328967295
      7   S      20           479.0573224    0.535328142282
      7   S      21           129.6516070    0.444634542185

      8   L      22           219.8350255   -0.099967229187    0.155916274999
      8   L      23            51.0849322    0.399512826089    0.607683718598
      8   L      24            16.6144055    0.700115468880    0.391957393099

      9   L      25            20.6524416   -0.219620369005    0.010587604289
      9   L      26             5.7619788    0.225595433605    0.595167005266
      9   L      27             2.2551994    0.900398426019    0.462001011973

     10   D      28            22.3657496    0.168659606013
     10   D      29             7.0128139    0.584798481745
     10   D      30             2.7316638    0.405677952331

     11   L      31             1.3960375   -0.308844121382   -0.121546859998
     11   L      32             0.5152256    0.019606411652    0.571522760389
     11   L      33             0.2275291    1.131034441567    0.549894947089

 C         

     12   S      34            71.6168373    0.154328967295
     12   S      35            13.0450963    0.535328142282
     12   S      36             3.5305122    0.444634542185

     13   L      37             2.9412494   -0.099967229187    0.155916274999
     13   L      38             0.6834831    0.399512826089    0.607683718598
     13   L      39             0.2222899    0.700115468880    0.391957393099

 C         

     14   S      40            71.6168373    0.154328967295
     14   S      41            13.0450963    0.535328142282
     14   S      42             3.5305122    0.444634542185

     15   L      43             2.9412494   -0.099967229187    0.155916274999
     15   L      44             0.6834831    0.399512826089    0.607683718598
     15   L      45             0.2222899    0.700115468880    0.391957393099

 H         

     16   S      46             3.4252509    0.154328967295
     16   S      47             0.6239137    0.535328142282
     16   S      48             0.1688554    0.444634542185

 H         

     17   S      49             3.4252509    0.154328967295
     17   S      50             0.6239137    0.535328142282
     17   S      51             0.1688554    0.444634542185

 H         

     18   S      52             3.4252509    0.154328967295
     18   S      53             0.6239137    0.535328142282
     18   S      54             0.1688554    0.444634542185

 H         

     19   S      55             3.4252509    0.154328967295
     19   S      56             0.6239137    0.535328142282
     19   S      57             0.1688554    0.444634542185

 H         

     20   S      58             3.4252509    0.154328967295
     20   S      59             0.6239137    0.535328142282
     20   S      60             0.1688554    0.444634542185

 H         

     21   S      61             3.4252509    0.154328967295
     21   S      62             0.6239137    0.535328142282
     21   S      63             0.1688554    0.444634542185

 H         

     22   S      64             3.4252509    0.154328967295
     22   S      65             0.6239137    0.535328142282
     22   S      66             0.1688554    0.444634542185

 H         

     23   S      67             3.4252509    0.154328967295
     23   S      68             0.6239137    0.535328142282
     23   S      69             0.1688554    0.444634542185

 TOTAL NUMBER OF BASIS SET SHELLS             =   23
 NUMBER OF CARTESIAN GAUSSIAN BASIS FUNCTIONS =   52
 NUMBER OF ELECTRONS                          =   73
 CHARGE OF MOLECULE                           =    0
 SPIN MULTIPLICITY                            =    2
 NUMBER OF OCCUPIED ORBITALS (ALPHA)          =   37
 NUMBER OF OCCUPIED ORBITALS (BETA )          =   36
 TOTAL NUMBER OF ATOMS                        =   14
 THE NUCLEAR REPULSION ENERGY IS      431.6838435366

     $CONTRL OPTIONS
     ---------------
 SCFTYP=UHF          RUNTYP=OPTIMIZE     EXETYP=RUN     
 MPLEVL=       0     CITYP =NONE         CCTYP =NONE         VBTYP =NONE    
 DFTTYP=NONE         TDDFT =NONE    
 MULT  =       2     ICHARG=       0     NZVAR =       1     COORD =UNIQUE  
 PP    =NONE         RELWFN=NONE         LOCAL =NONE         NUMGRD=       F
 ISPHER=      -1     NOSYM =       0     MAXIT =      30     UNITS =ANGS    
 PLTORB=       F     MOLPLT=       F     AIMPAC=       F     FRIEND=        
 NPRINT=       7     IREST =       0     GEOM  =INPUT   
 NORMF =       0     NORMP =       0     ITOL  =      20     ICUT  =       9
 INTTYP=BEST         GRDTYP=BEST         QMTTOL= 1.0E-06

     $SYSTEM OPTIONS
     ---------------
  REPLICATED MEMORY=     1000000 WORDS (ON EVERY NODE).
 DISTRIBUTED MEMDDI=           0 MILLION WORDS IN AGGREGATE,
 MEMDDI DISTRIBUTED OVER   1 PROCESSORS IS           0 WORDS/PROCESSOR.
 TOTAL MEMORY REQUESTED ON EACH PROCESSOR=     1000000 WORDS.
 TIMLIM=      525600.00 MINUTES, OR     365.0 DAYS.
 PARALL= F  BALTYP=  DLB     KDIAG=    0  COREFL= F
 MXSEQ2=     300 MXSEQ3=     150  mem10=         0

          ----------------
          PROPERTIES INPUT
          ----------------

     MOMENTS            FIELD           POTENTIAL          DENSITY
 IEMOM =       1   IEFLD =       0   IEPOT =       0   IEDEN =       0
 WHERE =COMASS     WHERE =NUCLEI     WHERE =NUCLEI     WHERE =NUCLEI  
 OUTPUT=BOTH       OUTPUT=BOTH       OUTPUT=BOTH       OUTPUT=BOTH    
 IEMINT=       0   IEFINT=       0                     IEDINT=       0
                                                       MORB  =       0
          EXTRAPOLATION IN EFFECT
          SOSCF IN EFFECT
          DIIS or SOSCF will be reset if energy rises
 ORBITAL PRINTING OPTION: NPREO=     1    52     2     1

     -------------------------------
     INTEGRAL TRANSFORMATION OPTIONS
     -------------------------------
     NWORD  =            0
     CUTOFF = 1.0E-09     MPTRAN =       0
     DIRTRF =       F     AOINTS =DUP     

          ----------------------
          INTEGRAL INPUT OPTIONS
          ----------------------
 NOPK  =       1 NORDER=       0 SCHWRZ=       T


 -----------------------------------------------
  STATISTICS ON AUTOMATIC COORDINATE GENERATION 
 -----------------------------------------------
  NUMBER OF USER SPECIFIED BONDS                             2
  NUMBER OF BONDS                                           17
  NUMBER OF ANGLES                                          40
  NUMBER OF TORSIONS                                        48
  NUMBER OF EXTRA COORD.                                     0
  NUMBER OF EXTRA COORD. FOR CONSTRAINTS                     0
  NUMBER OF CONSTRAINED COORD.                               2

  TOTAL NUMBER OF PRIMITIVES                               105
 -----------------------------------------------

   --- ENCODED Z MATRIX ---
 COORD  TYPE   I   J   K   L   M   N
    1      1    3   4
    2      1    4   5
    3      1    1   2
    4      1    1   8
    5      1    1   7
    6      1    1   6
    7      1    2   3
    8      1    2   9
    9      1    2  10
   10      1    3   4
   11      1    3  11
   12      1    3   5
   13      1    4   5
   14      1    5   6
   15      1    5  12
   16      1    6  14
   17      1    6  13
   18      2    1   6  13
   19      2    1   2  10
   20      2    1   2   3
   21      2    1   2   9
   22      2    1   6   5
   23      2    1   6  14
   24      2    2   3  11
   25      2    2   1   6
   26      2    2   3   5
   27      2    2   1   7
   28      2    2   3   4
   29      2    2   1   8
   30      2    2   3   4
   31      2    3   5   4
   32      2    3   4   5
   33      2    3   2  10
   34      2    3   2   9
   35      2    3   4   5
   36      2    3   5   4
   37      2    3   5   6
   38      2    3   5  12
   39      2    3   4   5
   40      2    3   4   5
   41      2    4   3   5
   42      2    4   3  11
   43      2    4   3   5
   44      2    4   3  11
   45      2    4   5  12
   46      2    4   5   6
   47      2    4   5  12
   48      2    4   5   6
   49      2    5   3  11
   50      2    5   6  13
   51      2    5   6  14
   52      2    6   1   7
   53      2    6   5  12
   54      2    6   1   8
   55      2    7   1   8
   56      2    9   2  10
   57      2   13   6  14
   58      3    1   2   3   5
   59      3    1   6   5  12
   60      3    1   2   3  11
   61      3    1   6   5   4
   62      3    1   6   5   3
   63      3    1   2   3   4
   64      3    2   3   4   5
   65      3    2   1   6  14
   66      3    2   1   6  13
   67      3    2   3   5  12
   68      3    2   3   5   6
   69      3    2   3   5   4
   70      3    2   1   6   5
   71      3    3   4   5   6
   72      3    3   2   1   8
   73      3    3   5   6  13
   74      3    3   5   6  14
   75      3    3   2   1   6
   76      3    3   4   5  12
   77      3    3   2   1   7
   78      3    4   5   3  11
   79      3    4   5   6  13
   80      3    4   5   6  14
   81      3    4   3   2  10
   82      3    4   3   2   9
   83      3    4   3   5  12
   84      3    4   3   5   6
   85      3    5   4   3  11
   86      3    5   3   2  10
   87      3    5   6   1   7
   88      3    5   3   2   9
   89      3    5   6   1   8
   90      3    6   1   2  10
   91      3    6   5   3  11
   92      3    6   1   2   9
   93      3    7   1   2   9
   94      3    7   1   6  13
   95      3    7   1   6  14
   96      3    7   1   2  10
   97      3    8   1   2   9
   98      3    8   1   6  14
   99      3    8   1   2  10
  100      3    8   1   6  13
  101      3    9   2   3  11
  102      3   10   2   3  11
  103      3   11   3   5  12
  104      3   12   5   6  13
  105      3   12   5   6  14

          INDEP./SYM. INTERNAL COORDINATES
          --------------------------------
 CRD  1=   1.0000 (  1)
 CRD  2=   1.0000 (  2)
 CRD  3=   0.4645 (  3)  0.2063 (  4)  0.4645 (  6)  0.1637 (  9)  0.1637 ( 16)
           0.1084 ( 18)  0.1084 ( 21) -0.1389 ( 34) -0.1390 ( 50)  0.1266 ( 64)
           0.1119 ( 65)  0.1579 ( 70) -0.1266 ( 71) -0.1138 ( 73) -0.1579 ( 75)
          -0.1058 ( 76) -0.1234 ( 77)  0.1057 ( 85)  0.1235 ( 87)  0.1138 ( 88)
          -0.1119 ( 90)  0.1124 (101) -0.1124 (104)
 CRD  4=   0.4316 (  3) -0.4316 (  6) -0.1752 ( 18) -0.1025 ( 20)  0.1752 ( 21)
           0.1025 ( 22)  0.1024 ( 24)  0.2656 ( 29) -0.1300 ( 34)  0.1300 ( 50)
          -0.1024 ( 53) -0.2656 ( 54)  0.1496 ( 66)  0.1448 ( 68) -0.1622 ( 72)
          -0.1622 ( 89)  0.1496 ( 92)  0.1307 ( 93)  0.1307 ( 94) -0.1244 ( 98)
          -0.1244 ( 99)
 CRD  5=   0.2217 (  3) -0.2218 (  6)  0.1705 (  7)  0.1201 (  9) -0.1705 ( 14)
          -0.1201 ( 16)  0.1506 ( 18)  0.2141 ( 19) -0.1012 ( 20) -0.1506 ( 21)
           0.1012 ( 22) -0.2141 ( 23)  0.2939 ( 27)  0.1807 ( 34) -0.1807 ( 50)
          -0.2939 ( 52)  0.1529 ( 58)  0.1281 ( 59)  0.1281 ( 60)  0.1398 ( 61)
           0.1528 ( 62)  0.1398 ( 63) -0.1181 ( 65) -0.1748 ( 66) -0.1201 ( 68)
           0.1403 ( 77)  0.1403 ( 87) -0.1181 ( 90) -0.1748 ( 92)  0.1052 ( 95)
           0.1052 ( 96) -0.1097 ( 97) -0.1097 (100)
 CRD  6=  -0.5351 (  7) -0.1096 (  9) -0.1668 ( 11) -0.1521 ( 12) -0.5351 ( 14)
          -0.1668 ( 15) -0.1096 ( 16) -0.1531 ( 34) -0.1531 ( 50)
 CRD  7=  -0.2359 (  3) -0.1888 (  5) -0.2359 (  6) -0.1603 ( 12)  0.1422 ( 24)
           0.2194 ( 25)  0.1933 ( 33) -0.1756 ( 38) -0.1756 ( 49)  0.1933 ( 51)
           0.1422 ( 53)  0.1332 ( 55)  0.1399 ( 58) -0.1151 ( 61) -0.1399 ( 62)
           0.1151 ( 63)  0.1007 ( 69)  0.1388 ( 70) -0.1481 ( 72) -0.1621 ( 74)
          -0.1388 ( 75) -0.1944 ( 76) -0.1064 ( 77) -0.1372 ( 80)  0.1372 ( 81)
          -0.1007 ( 84)  0.1944 ( 85)  0.1621 ( 86)  0.1064 ( 87)  0.1481 ( 89)
 CRD  8=   0.2301 (  4) -0.1897 (  9) -0.1190 ( 11) -0.3837 ( 12) -0.1190 ( 15)
          -0.1897 ( 16) -0.1051 ( 25)  0.1298 ( 29) -0.1104 ( 32) -0.1104 ( 35)
          -0.1528 ( 38) -0.1104 ( 39) -0.1104 ( 40) -0.1528 ( 49)  0.1298 ( 54)
           0.1985 ( 59) -0.1985 ( 60)  0.1125 ( 61) -0.1125 ( 63)  0.1530 ( 65)
           0.1362 ( 66)  0.1360 ( 72) -0.1010 ( 73) -0.1166 ( 74) -0.1302 ( 76)
           0.1108 ( 77)  0.1302 ( 85)  0.1166 ( 86) -0.1108 ( 87)  0.1010 ( 88)
          -0.1360 ( 89) -0.1530 ( 90) -0.1362 ( 92)
 CRD  9=  -0.1605 (  7)  0.1388 (  8) -0.3474 ( 11)  0.1605 ( 14)  0.3474 ( 15)
          -0.1388 ( 17) -0.1661 ( 18)  0.1661 ( 21) -0.1438 ( 24)  0.2305 ( 26)
          -0.2305 ( 37)  0.1438 ( 53) -0.1281 ( 61) -0.1281 ( 63)  0.2531 ( 64)
           0.1202 ( 67)  0.2531 ( 71)  0.1124 ( 73)  0.1146 ( 76)  0.1146 ( 85)
           0.1124 ( 88)  0.1202 ( 91)  0.1048 (101)  0.1954 (103)  0.1048 (104)
 CRD 10=  -0.2379 (  4)  0.4819 (  5)  0.1370 (  8) -0.1238 ( 11) -0.1238 ( 15)
           0.1370 ( 17)  0.1865 ( 18) -0.1849 ( 19)  0.1865 ( 21) -0.1849 ( 23)
           0.1226 ( 27)  0.2110 ( 33) -0.1226 ( 34) -0.1226 ( 50)  0.2110 ( 51)
           0.1226 ( 52)  0.1081 ( 59) -0.1081 ( 60) -0.2133 ( 65) -0.1718 ( 66)
           0.2133 ( 90)  0.1718 ( 92)
 CRD 11=  -0.3835 (  8)  0.2645 (  9) -0.2487 ( 11)  0.2486 ( 15) -0.2645 ( 16)
           0.3834 ( 17) -0.1078 ( 24) -0.1336 ( 27)  0.1842 ( 29)  0.1336 ( 52)
           0.1078 ( 53) -0.1842 ( 54)  0.1046 ( 58)  0.1009 ( 59)  0.1009 ( 60)
           0.1046 ( 62) -0.1350 ( 68) -0.1736 ( 72) -0.1457 ( 77) -0.1457 ( 87)
          -0.1736 ( 89)
 CRD 12=   0.1201 (  4) -0.1518 (  5) -0.2968 (  8)  0.1380 (  9) -0.3308 ( 11)
          -0.3308 ( 15)  0.1380 ( 16) -0.2968 ( 17) -0.1619 ( 24)  0.1811 ( 28)
           0.1811 ( 30)  0.1811 ( 46)  0.1811 ( 48) -0.1619 ( 53) -0.1509 ( 67)
          -0.1993 ( 69)  0.1094 ( 76)  0.1993 ( 84) -0.1094 ( 85)  0.1509 ( 91)
 CRD 13=  -0.3337 (  4)  0.2903 (  9) -0.2480 ( 11) -0.1896 ( 12) -0.2480 ( 15)
           0.2903 ( 16) -0.1338 ( 18)  0.1182 ( 19) -0.1338 ( 21)  0.1182 ( 23)
           0.1489 ( 73)  0.1142 ( 74)  0.1920 ( 79)  0.1573 ( 80) -0.1573 ( 81)
          -0.1920 ( 82) -0.1142 ( 86) -0.1489 ( 88) -0.1950 (101) -0.1602 (102)
           0.1950 (104)  0.1602 (105)
 CRD 14=  -0.1014 (  8) -0.1254 (  9) -0.3628 ( 11)  0.3628 ( 15)  0.1254 ( 16)
           0.1014 ( 17) -0.1359 ( 19)  0.1359 ( 23)  0.1364 ( 24)  0.1067 ( 33)
          -0.1103 ( 42) -0.1103 ( 44)  0.1103 ( 45)  0.1103 ( 47) -0.1067 ( 51)
          -0.1364 ( 53) -0.1037 ( 64) -0.1328 ( 67) -0.1037 ( 71)  0.1189 ( 74)
          -0.1132 ( 78)  0.1377 ( 79)  0.1596 ( 80)  0.1596 ( 81)  0.1377 ( 82)
          -0.1132 ( 83)  0.1189 ( 86) -0.1328 ( 91)  0.1020 ( 93)  0.1020 ( 94)
           0.1447 ( 95)  0.1447 ( 96)  0.1356 ( 98)  0.1356 ( 99)  0.1035 (102)
          -0.2263 (103)  0.1035 (105)
 CRD 15=   0.4400 (  4)  0.5746 (  5) -0.2823 (  8) -0.1388 (  9) -0.1388 ( 16)
          -0.2823 ( 17)  0.1982 ( 55) -0.1050 ( 72)  0.1050 ( 89) -0.1393 ( 97)
           0.1393 (100)
 CRD 16=  -0.3943 (  8) -0.4531 (  9)  0.4531 ( 16)  0.3943 ( 17) -0.1741 ( 56)
           0.1741 ( 57)
 CRD 17=  -0.4170 (  4) -0.2101 (  5) -0.3395 (  8) -0.3625 (  9) -0.3626 ( 16)
          -0.3396 ( 17) -0.1433 ( 55) -0.1546 ( 56) -0.1546 ( 57) -0.1486 ( 93)
           0.1486 ( 94)
 CRD 18=  -0.1875 (  8)  0.2184 (  9)  0.3003 ( 11) -0.3003 ( 15) -0.2184 ( 16)
           0.1875 ( 17) -0.1259 ( 24)  0.1451 ( 27) -0.1314 ( 29) -0.1245 ( 34)
           0.1245 ( 50) -0.1451 ( 52)  0.1259 ( 53)  0.1314 ( 54)  0.2080 ( 93)
           0.2080 ( 94)  0.1820 ( 95)  0.1820 ( 96)  0.1900 ( 97)  0.1640 ( 98)
           0.1640 ( 99)  0.1900 (100)  0.1685 (103)
 CRD 19=  -0.1824 (  8)  0.1463 (  9) -0.1085 ( 11)  0.1085 ( 15) -0.1464 ( 16)
           0.1825 ( 17)  0.1551 ( 24) -0.1551 ( 53) -0.1254 ( 58) -0.1227 ( 59)
          -0.1227 ( 60) -0.1211 ( 61) -0.1254 ( 62) -0.1210 ( 63)  0.1561 ( 68)
           0.1032 ( 72) -0.1706 ( 73) -0.2073 ( 74) -0.1663 ( 79) -0.2029 ( 80)
          -0.2029 ( 81) -0.1662 ( 82) -0.2073 ( 86) -0.1706 ( 88)  0.1032 ( 89)
           0.1088 ( 97)  0.1080 ( 98)  0.1079 ( 99)  0.1089 (100) -0.1679 (101)
          -0.2046 (102) -0.1357 (103) -0.1679 (104) -0.2046 (105)
 CRD 20=   0.2597 (  4) -0.3084 (  5) -0.1889 (  8)  0.1622 (  9)  0.1621 ( 16)
          -0.1888 ( 17)  0.1006 ( 33)  0.1006 ( 51) -0.1817 ( 65) -0.1588 ( 66)
           0.1407 ( 72)  0.1252 ( 77) -0.1251 ( 87) -0.1407 ( 89)  0.1817 ( 90)
           0.1588 ( 92)  0.1879 ( 93) -0.1878 ( 94) -0.2107 ( 95)  0.2108 ( 96)
           0.2034 ( 97) -0.2262 ( 98)  0.2263 ( 99) -0.2034 (100)
 CRD 21=  -0.1460 (  4)  0.1989 (  5) -0.2263 (  8)  0.1894 (  9)  0.4317 ( 11)
          -0.1631 ( 12)  0.4317 ( 15)  0.1894 ( 16) -0.2263 ( 17) -0.1562 ( 24)
           0.1058 ( 42)  0.1058 ( 44)  0.1058 ( 45)  0.1058 ( 47) -0.1562 ( 53)
           0.1110 ( 59) -0.1110 ( 60) -0.1932 ( 67)  0.1230 ( 78) -0.1230 ( 83)
           0.1932 ( 91)
 CRD 22=  -0.2995 (  4)  0.1581 (  5) -0.1060 (  8)  0.1243 ( 11)  0.1244 ( 15)
          -0.1060 ( 17)  0.1106 ( 18)  0.1106 ( 21)  0.1201 ( 24) -0.1656 ( 33)
          -0.1289 ( 34) -0.1832 ( 42) -0.1832 ( 44) -0.1832 ( 45) -0.1832 ( 47)
          -0.1289 ( 50) -0.1656 ( 51)  0.1201 ( 53)  0.1305 ( 55)  0.1288 ( 65)
           0.1242 ( 67)  0.1432 ( 77) -0.1977 ( 78)  0.1977 ( 83) -0.1432 ( 87)
          -0.1288 ( 90) -0.1242 ( 91)  0.2276 ( 93) -0.2276 ( 94)  0.1171 ( 97)
           0.1006 ( 98) -0.1006 ( 99) -0.1171 (100)  0.1376 (101) -0.1376 (104)
 CRD 23=   0.2172 (  9) -0.2172 ( 16) -0.1553 ( 18)  0.1060 ( 19)  0.1553 ( 21)
          -0.1060 ( 23) -0.1507 ( 27) -0.1855 ( 29)  0.1507 ( 52)  0.1855 ( 54)
          -0.1631 ( 56)  0.1631 ( 57)  0.1012 ( 59)  0.1012 ( 60)  0.1329 ( 72)
           0.1505 ( 73) -0.1120 ( 77)  0.1475 ( 79)  0.1475 ( 82) -0.1120 ( 87)
           0.1505 ( 88)  0.1329 ( 89) -0.1904 ( 93) -0.1904 ( 94) -0.1638 ( 95)
          -0.1638 ( 96)  0.2745 (101) -0.1856 (103)  0.2745 (104)
 CRD 24=   0.1164 (  4)  0.1038 (  5) -0.2910 (  7) -0.1141 (  8)  0.1102 ( 11)
           0.2344 ( 12) -0.2910 ( 14)  0.1102 ( 15) -0.1141 ( 17) -0.1117 ( 19)
          -0.1117 ( 23)  0.1537 ( 24)  0.1124 ( 34) -0.1716 ( 42) -0.1716 ( 44)
          -0.1716 ( 45) -0.1716 ( 47)  0.1124 ( 50)  0.1537 ( 53) -0.1888 ( 55)
           0.1363 ( 67)  0.1126 ( 72) -0.1217 ( 74) -0.1661 ( 78) -0.1512 ( 80)
           0.1513 ( 81)  0.1661 ( 83)  0.1217 ( 86) -0.1126 ( 89) -0.1363 ( 91)
          -0.1356 ( 93)  0.1356 ( 94)  0.1094 (102) -0.1094 (105)
 CRD 25=  -0.3337 (  3)  0.3337 (  6)  0.1783 (  7) -0.1141 (  9) -0.1783 ( 14)
           0.1141 ( 16) -0.1090 ( 18)  0.1252 ( 19)  0.1090 ( 21) -0.1252 ( 23)
           0.1309 ( 27) -0.1808 ( 34)  0.1808 ( 50) -0.1309 ( 52) -0.1133 ( 65)
           0.1178 ( 66) -0.1140 ( 67) -0.1125 ( 72) -0.1010 ( 74) -0.1321 ( 80)
          -0.1321 ( 81) -0.1010 ( 86) -0.1125 ( 89) -0.1133 ( 90) -0.1141 ( 91)
           0.1178 ( 92)  0.2173 ( 93)  0.2173 ( 94) -0.1713 ( 98) -0.1713 ( 99)
           0.1208 (101) -0.1748 (103)  0.1208 (104)
 CRD 26=  -0.1397 (  4)  0.2976 (  5)  0.1091 (  7) -0.1587 (  8)  0.1671 (  9)
          -0.1952 ( 11)  0.1091 ( 14) -0.1952 ( 15)  0.1671 ( 16) -0.1587 ( 17)
          -0.1633 ( 28)  0.1279 ( 29) -0.1633 ( 30)  0.1294 ( 34)  0.1077 ( 42)
           0.1077 ( 44)  0.1077 ( 45) -0.1633 ( 46)  0.1077 ( 47) -0.1633 ( 48)
           0.1294 ( 50)  0.1279 ( 54) -0.1307 ( 55)  0.1227 ( 66)  0.1661 ( 69)
           0.2314 ( 72)  0.1194 ( 77)  0.1039 ( 78) -0.1039 ( 83) -0.1661 ( 84)
          -0.1194 ( 87) -0.2314 ( 89) -0.1227 ( 92) -0.1193 ( 98)  0.1193 ( 99)
           0.1017 (101)  0.1265 (102) -0.1017 (104) -0.1265 (105)
 CRD 27=   0.1199 ( 19) -0.1199 ( 23) -0.1532 ( 29) -0.1610 ( 33) -0.1298 ( 34)
           0.1618 ( 38) -0.1619 ( 49)  0.1298 ( 50)  0.1610 ( 51)  0.1532 ( 54)
           0.1176 ( 56) -0.1176 ( 57)  0.1128 ( 58) -0.1306 ( 59) -0.1306 ( 60)
           0.1317 ( 61)  0.1128 ( 62)  0.1317 ( 63) -0.1598 ( 65) -0.1170 ( 68)
           0.1025 ( 73)  0.2033 ( 76)  0.1214 ( 79)  0.1214 ( 82)  0.2033 ( 85)
           0.1025 ( 88) -0.1598 ( 90) -0.2118 ( 95) -0.2118 ( 96)  0.2045 ( 97)
           0.2045 (100) -0.1408 (101) -0.1917 (102)  0.1002 (103) -0.1408 (104)
          -0.1917 (105)
 CRD 28=  -0.2067 (  3)  0.1945 (  4) -0.2067 (  6) -0.1343 (  7)  0.2048 (  9)
          -0.2592 ( 12) -0.1343 ( 14)  0.2048 ( 16)  0.1194 ( 18)  0.1194 ( 21)
          -0.1065 ( 55) -0.2060 ( 56) -0.2060 ( 57) -0.1336 ( 73)  0.1401 ( 76)
           0.1171 ( 80) -0.1171 ( 81) -0.1401 ( 85)  0.1336 ( 88) -0.2017 ( 93)
           0.2017 ( 94) -0.1251 ( 97)  0.1251 (100)  0.2361 (101) -0.2361 (104)
 CRD 29=  -0.1194 (  7) -0.2117 (  8)  0.1182 (  9)  0.1798 ( 11)  0.1194 ( 14)
          -0.1798 ( 15) -0.1182 ( 16)  0.2117 ( 17) -0.1541 ( 19)  0.1541 ( 23)
           0.1092 ( 24)  0.1270 ( 26)  0.1072 ( 27) -0.1270 ( 37)  0.1704 ( 38)
          -0.1183 ( 42) -0.1183 ( 44)  0.1183 ( 45)  0.1183 ( 47) -0.1704 ( 49)
          -0.1072 ( 52) -0.1092 ( 53)  0.1440 ( 64) -0.1436 ( 65)  0.1440 ( 71)
           0.1841 ( 74)  0.1749 ( 76)  0.1277 ( 80)  0.1277 ( 81)  0.1749 ( 85)
           0.1841 ( 86) -0.1436 ( 90) -0.1238 ( 97) -0.1724 ( 98) -0.1724 ( 99)
          -0.1238 (100)  0.1334 (102) -0.1632 (103)  0.1334 (105)
 CRD 30=  -0.2522 (  3)  0.2314 (  4)  0.1082 (  5) -0.2522 (  6)  0.1333 (  7)
           0.1353 ( 12)  0.1333 ( 14)  0.1609 ( 19)  0.1609 ( 23)  0.2092 ( 25)
          -0.1019 ( 34) -0.1019 ( 50) -0.2650 ( 55) -0.1436 ( 66)  0.1182 ( 72)
          -0.1866 ( 77)  0.1866 ( 87) -0.1182 ( 89)  0.1435 ( 92)  0.2358 ( 95)
          -0.2358 ( 96)  0.2411 ( 97) -0.2411 (100) -0.1409 (102)  0.1409 (105)
 CRD 31=  -0.1328 (  3)  0.1328 (  6) -0.2815 (  7)  0.1548 (  8)  0.1074 ( 11)
           0.2815 ( 14) -0.1074 ( 15) -0.1548 ( 17)  0.1489 ( 20) -0.1489 ( 22)
           0.1426 ( 38) -0.1426 ( 49) -0.1603 ( 56)  0.1603 ( 57)  0.1031 ( 58)
           0.1031 ( 62)  0.1627 ( 65) -0.1210 ( 67) -0.1762 ( 68)  0.1474 ( 73)
           0.1566 ( 76)  0.1241 ( 79)  0.1241 ( 82)  0.1566 ( 85)  0.1474 ( 88)
           0.1627 ( 90) -0.1210 ( 91)  0.1672 ( 95)  0.1672 ( 96) -0.2196 (102)
          -0.2196 (105)
 CRD 32=  -0.1525 (  4)  0.1449 (  5) -0.1452 (  7)  0.1537 (  8)  0.1959 ( 12)
          -0.1452 ( 14)  0.1538 ( 17)  0.1522 ( 20)  0.1521 ( 22) -0.1258 ( 27)
           0.1277 ( 29) -0.1259 ( 52)  0.1276 ( 54) -0.1536 ( 56) -0.1535 ( 57)
          -0.1299 ( 61)  0.1299 ( 63)  0.1976 ( 66)  0.1625 ( 70)  0.1005 ( 74)
          -0.1625 ( 75) -0.1180 ( 79)  0.1181 ( 82) -0.1005 ( 86) -0.1977 ( 92)
          -0.2194 ( 95)  0.2194 ( 96) -0.2161 ( 98)  0.2160 ( 99) -0.2235 (102)
           0.2234 (105)
 CRD 33=  -0.2070 (  3)  0.2071 (  6)  0.1146 (  7)  0.1769 (  9) -0.1206 ( 11)
          -0.1145 ( 14)  0.1206 ( 15) -0.1769 ( 16) -0.1270 ( 18)  0.1271 ( 21)
          -0.1801 ( 26)  0.1095 ( 27) -0.1254 ( 33)  0.1801 ( 37)  0.1253 ( 51)
          -0.1094 ( 52) -0.1004 ( 58) -0.1771 ( 59) -0.1771 ( 60) -0.1003 ( 62)
          -0.1827 ( 64)  0.1216 ( 67) -0.1827 ( 71)  0.1106 ( 73)  0.1409 ( 77)
           0.2001 ( 79)  0.2000 ( 82)  0.1410 ( 87)  0.1106 ( 88)  0.1215 ( 91)
          -0.1487 ( 97) -0.1109 ( 98) -0.1111 ( 99) -0.1487 (100) -0.1155 (102)
           0.1817 (103) -0.1157 (105)
 CRD 34=   0.1815 (  5) -0.1397 (  9) -0.2845 ( 12) -0.1397 ( 16) -0.1439 ( 18)
          -0.1439 ( 21)  0.1174 ( 25)  0.1220 ( 33)  0.1220 ( 51) -0.1070 ( 55)
           0.1125 ( 58) -0.2418 ( 59)  0.2418 ( 60) -0.1125 ( 62)  0.1090 ( 64)
           0.1660 ( 70) -0.1090 ( 71) -0.1660 ( 75)  0.1358 ( 76)  0.1925 ( 79)
          -0.1925 ( 82) -0.1358 ( 85)  0.1853 ( 97) -0.1893 ( 98)  0.1892 ( 99)
          -0.1853 (100)  0.1476 (102) -0.1476 (105)
 CRD 35=   0.1223 (  4)  0.1345 (  7)  0.1344 ( 14) -0.1036 ( 18) -0.1647 ( 19)
           0.3417 ( 20) -0.1036 ( 21)  0.3417 ( 22) -0.1647 ( 23)  0.1169 ( 24)
          -0.3565 ( 25) -0.1324 ( 26)  0.1282 ( 27)  0.1177 ( 29) -0.2039 ( 34)
          -0.1324 ( 37) -0.2039 ( 50)  0.1282 ( 52)  0.1169 ( 53)  0.1177 ( 54)
          -0.1322 ( 55)  0.1181 ( 56)  0.1181 ( 57) -0.1192 ( 64)  0.1192 ( 71)
          -0.1285 ( 72) -0.1206 ( 77)  0.1206 ( 87)  0.1285 ( 89)
 CRD 36=   0.1276 (  3) -0.1276 (  6) -0.4318 (  7)  0.4318 ( 14)  0.1753 ( 20)
          -0.1752 ( 22) -0.2779 ( 33) -0.1227 ( 38)  0.1227 ( 49)  0.2780 ( 51)
           0.1084 ( 56) -0.1083 ( 57)  0.1081 ( 70)  0.1080 ( 75) -0.1477 ( 76)
           0.1499 ( 77) -0.1478 ( 85)  0.1499 ( 87)

 THE DETERMINANT OF THE G MATRIX IS 10**(    -9)


                     --------------------
                     INTERNAL COORDINATES
                     --------------------

                 - - ATOMS - -         COORDINATE      COORDINATE
 NO.   TYPE    I  J  K  L  M  N        (BOHR,RAD)       (ANG,DEG)
 ----------------------------------------------------------------
   1 STRETCH   3  4                     3.7458109       1.9821979
   2 STRETCH   4  5                     3.7458179       1.9822016
   3 STRETCH   1  2                     2.8509148       1.5086393
   4 STRETCH   1  8                     2.0988280       1.1106520
   5 STRETCH   1  7                     2.1062789       1.1145949
   6 STRETCH   1  6                     2.8509263       1.5086453
   7 STRETCH   2  3                     2.8914683       1.5300992
   8 STRETCH   2  9                     2.1052015       1.1140247
   9 STRETCH   2 10                     2.0981043       1.1102691
  10 STRETCH   3  4                     3.7458109       1.9821979
  11 STRETCH   3 11                     2.1036807       1.1132200
  12 STRETCH   3  5                     2.7901439       1.4764807
  13 STRETCH   4  5                     3.7458179       1.9822016
  14 STRETCH   5  6                     2.8914479       1.5300885
  15 STRETCH   5 12                     2.1036934       1.1132267
  16 STRETCH   6 14                     2.0981140       1.1102742
  17 STRETCH   6 13                     2.1051959       1.1140218
  18 BEND      1  6 13                  1.9054899     109.1765291
  19 BEND      1  2 10                  1.9779748     113.3296097
  20 BEND      1  2  3                  1.7959580     102.9008135
  21 BEND      1  2  9                  1.9054822     109.1760864
  22 BEND      1  6  5                  1.7959581     102.9008217
  23 BEND      1  6 14                  1.9779716     113.3294255
  24 BEND      2  3 11                  2.0609410     118.0832193
  25 BEND      2  1  6                  1.7494781     100.2377124
  26 BEND      2  3  5                  1.8484852     105.9104004
  27 BEND      2  1  7                  1.9054288     109.1730279
  28 BEND      2  3  4                  2.0302204     116.3230625
  29 BEND      2  1  8                  1.9952240     114.3179172
  30 BEND      2  3  4                  2.0302204     116.3230625
  31 BEND      3  5  4                  1.1891627      68.1340040
  32 BEND      3  4  5                  0.7632625      43.7317223
  33 BEND      3  2 10                  1.9795265     113.4185130
  34 BEND      3  2  9                  1.9065439     109.2369212
  35 BEND      3  4  5                  0.7632625      43.7317223
  36 BEND      3  5  4                  1.1891627      68.1340040
  37 BEND      3  5  6                  1.8484926     105.9108261
  38 BEND      3  5 12                  1.8840386     107.9474603
  39 BEND      3  4  5                  0.7632625      43.7317223
  40 BEND      3  4  5                  0.7632625      43.7317223
  41 BEND      4  3  5                  1.1891674      68.1342737
  42 BEND      4  3 11                  2.1630377     123.9329321
  43 BEND      4  3  5                  1.1891674      68.1342737
  44 BEND      4  3 11                  2.1630377     123.9329321
  45 BEND      4  5 12                  2.1630298     123.9324785
  46 BEND      4  5  6                  2.0302194     116.3230057
  47 BEND      4  5 12                  2.1630298     123.9324785
  48 BEND      4  5  6                  2.0302194     116.3230057
  49 BEND      5  3 11                  1.8840497     107.9480985
  50 BEND      5  6 13                  1.9065496     109.2372465
  51 BEND      5  6 14                  1.9795261     113.4184889
  52 BEND      6  1  7                  1.9054195     109.1724959
  53 BEND      6  5 12                  2.0609512     118.0838049
  54 BEND      6  1  8                  1.9952123     114.3172442
  55 BEND      7  1  8                  1.9064548     109.2318129
  56 BEND      9  2 10                  1.8953838     108.5974911
  57 BEND     13  6 14                  1.8953752     108.5969975
  58 TORSION   1  2  3  5              -0.4866582     -27.8834596
  59 TORSION   1  6  5 12              -1.6254753     -93.1328765
  60 TORSION   1  2  3 11               1.6254820      93.1332587
  61 TORSION   1  6  5  4               1.7621375     100.9630420
  62 TORSION   1  6  5  3               0.4866629      27.8837274
  63 TORSION   1  2  3  4              -1.7621351    -100.9629030
  64 TORSION   2  3  4  5               1.7021932      97.5284864
  65 TORSION   2  1  6 14              -2.9220049    -167.4185480
  66 TORSION   2  1  6 13               1.2462279      71.4035977
  67 TORSION   2  3  5 12               2.2229313     127.3645809
  68 TORSION   2  3  5  6              -0.0000041      -0.0002348
  69 TORSION   2  3  5  4              -1.9632384    -112.4852759
  70 TORSION   2  1  6  5              -0.7774155     -44.5426299
  71 TORSION   3  4  5  6              -1.7022001     -97.5288817
  72 TORSION   3  2  1  8               2.9196063     167.2811164
  73 TORSION   3  5  6 13              -1.5362211     -88.0189862
  74 TORSION   3  5  6 14               2.6302116     150.7000213
  75 TORSION   3  2  1  6               0.7774118      44.5424148
  76 TORSION   3  4  5 12               1.7013538      97.4803905
  77 TORSION   3  2  1  7              -1.2225633     -70.0477176
  78 TORSION   4  5  3 11               2.0970218     120.1504982
  79 TORSION   4  5  6 13              -0.2607465     -14.9396716
  80 TORSION   4  5  6 14              -2.3774991    -136.2206641
  81 TORSION   4  3  2 10               2.3774975     136.2205702
  82 TORSION   4  3  2  9               0.2607376      14.9391635
  83 TORSION   4  3  5 12              -2.0970156    -120.1501432
  84 TORSION   4  3  5  6               1.9632343     112.4850412
  85 TORSION   5  4  3 11              -1.7013681     -97.4812111
  86 TORSION   5  3  2 10              -2.6302109    -150.6999864
  87 TORSION   5  6  1  7               1.2225666      70.0479067
  88 TORSION   5  3  2  9               1.5362145      88.0186068
  89 TORSION   5  6  1  8              -2.9196183    -167.2818045
  90 TORSION   6  1  2 10               2.9220033     167.4184585
  91 TORSION   6  5  3 11              -2.2229292    -127.3644606
  92 TORSION   6  1  2  9              -1.2462218     -71.4032500
  93 TORSION   7  1  2  9               3.0369884     174.0066176
  94 TORSION   7  1  6 13              -3.0369753    -174.0058657
  95 TORSION   7  1  6 14              -0.9220227     -52.8280114
  96 TORSION   7  1  2 10               0.9220282      52.8283261
  97 TORSION   8  1  2  9               0.8959727      51.3354516
  98 TORSION   8  1  6 14               1.2189777      69.8422774
  99 TORSION   8  1  2 10              -1.2189875     -69.8428399
 100 TORSION   8  1  6 13              -0.8959748     -51.3355769
 101 TORSION   9  2  3 11              -2.6348306    -150.9646748
 102 TORSION  10  2  3 11              -0.5180708     -29.6832681
 103 TORSION  11  3  5 12               0.0000062       0.0003550
 104 TORSION  12  5  6 13               2.6348260     150.9644099
 105 TORSION  12  5  6 14               0.5180734      29.6834174

     ------------------------------------------
     THE POINT GROUP IS C1 , NAXIS= 0, ORDER= 1
     ------------------------------------------

     DIMENSIONS OF THE SYMMETRY SUBSPACES ARE
 A   =   52

 ..... DONE SETTING UP THE RUN .....
 STEP CPU TIME =     0.05 TOTAL CPU TIME =          0.0 (      0.0 MIN)
 TOTAL WALL CLOCK TIME=          0.1 SECONDS, CPU UTILIZATION IS    83.33%


          -----------------------------
          STATIONARY POINT LOCATION RUN
          -----------------------------


           ** GEOMETRY CONSTRAINTS ARE BEING APPLIED. **

          TRANSFORMING DISPLACEMENT FROM INTERNALS TO CARTESIANS
          THE ROOT MEAN SQUARE ERROR IN ITERATION   1 IS   0.00000068
          THE ROOT MEAN SQUARE ERROR IN ITERATION   2 IS   0.00000000
 WARNING! THE RADIUS IN CARTESIANS IS    0.00848
 OBTAINING INITIAL HESSIAN, HESS=CALC    

     ---------------------------------
     HESSIAN MATRIX CONTROL PARAMETERS
     ---------------------------------
     METHOD=ANALYTIC   NVIB  =       2   VIBSIZ= 0.01000
     RDHESS=       F   PURIFY=       F   PRTIFC=       F
     VIBANL=       F   DECOMP=       F   PROJCT=       F
     SCLFAC= 1.00000   PRTSCN=       F   NPRT  =       0
     PULCOR=       F   NPUN  =       0   REDOVB=       T
     HSSTYP=GENERAL 
 Old integral subroutine is used

     ------------------------------
     CPHF RESPONSE SOLUTION OPTIONS
     ------------------------------
     POLAR  =       F     NWORD  =       0
     CPHF   =AO      

          ********************
          1 ELECTRON INTEGRALS
          ********************
 ...... END OF ONE-ELECTRON INTEGRALS ......
 STEP CPU TIME =     0.03 TOTAL CPU TIME =          0.1 (      0.0 MIN)
 TOTAL WALL CLOCK TIME=          0.1 SECONDS, CPU UTILIZATION IS    80.00%

          -------------
          GUESS OPTIONS
          -------------
          GUESS =HUCKEL            NORB  =       0          NORDER=       0
          MIX   =       F          PRTMO =       F          PUNMO =       F
          TOLZ  = 1.0E-08          TOLE  = 1.0E-05
          SYMDEN=       F          PURIFY=       F

 INITIAL GUESS ORBITALS GENERATED BY HUCKEL   ROUTINE.
 HUCKEL GUESS REQUIRES     39958 WORDS.

 SYMMETRIES FOR INITIAL GUESS ORBITALS FOLLOW.  ALPHA SET(S).
    37 ORBITALS ARE OCCUPIED (   19 CORE ORBITALS).
    20=A       21=A       22=A       23=A       24=A       25=A       26=A   
    27=A       28=A       29=A       30=A       31=A       32=A       33=A   
    34=A       35=A       36=A       37=A       38=A       39=A       40=A   
    41=A       42=A       43=A       44=A       45=A       46=A       47=A   

 SYMMETRIES FOR INITIAL GUESS ORBITALS FOLLOW.   BETA SET(S).
    36 ORBITALS ARE OCCUPIED (   19 CORE ORBITALS).
    20=A       21=A       22=A       23=A       24=A       25=A       26=A   
    27=A       28=A       29=A       30=A       31=A       32=A       33=A   
    34=A       35=A       36=A       37=A       38=A       39=A       40=A   
    41=A       42=A       43=A       44=A       45=A       46=A   
 ...... END OF INITIAL ORBITAL SELECTION ......
 STEP CPU TIME =     0.04 TOTAL CPU TIME =          0.1 (      0.0 MIN)
 TOTAL WALL CLOCK TIME=          0.1 SECONDS, CPU UTILIZATION IS    80.00%

                    ----------------------
                    AO INTEGRAL TECHNOLOGY
                    ----------------------
     S,P,L SHELL ROTATED AXIS INTEGRALS, REPROGRAMMED BY
        KAZUYA ISHIMURA (IMS) AND JOSE SIERRA (SYNSTAR).
     S,P,D,L SHELL ROTATED AXIS INTEGRALS PROGRAMMED BY
        KAZUYA ISHIMURA (INSTITUTE FOR MOLECULAR SCIENCE).
     S,P,D,F,G SHELL TO TOTAL QUARTET ANGULAR MOMENTUM SUM 5,
        ERIC PROGRAM BY GRAHAM FLETCHER (ELORET AND NASA ADVANCED
        SUPERCOMPUTING DIVISION, AMES RESEARCH CENTER).
     S,P,D,F,G,L SHELL GENERAL RYS QUADRATURE PROGRAMMED BY
        MICHEL DUPUIS (PACIFIC NORTHWEST NATIONAL LABORATORY).

          --------------------
          2 ELECTRON INTEGRALS
          --------------------

 THE -PK- OPTION IS OFF, THE INTEGRALS ARE NOT IN SUPERMATRIX FORM.
 STORING   15000 INTEGRALS/RECORD ON DISK, USING 12 BYTES/INTEGRAL.
 TWO ELECTRON INTEGRAL EVALUATION REQUIRES   90672 WORDS OF MEMORY.
 SCHWARZ INEQUALITY OVERHEAD:      1323 INTEGRALS, T=        0.00
 II,JST,KST,LST =  1  1  1  1 NREC =         1 INTLOC =    1
 II,JST,KST,LST =  2  1  1  1 NREC =         1 INTLOC =    2
 II,JST,KST,LST =  3  1  1  1 NREC =         1 INTLOC =   34
 II,JST,KST,LST =  4  1  1  1 NREC =         1 INTLOC =  142
 II,JST,KST,LST =  5  1  1  1 NREC =         1 INTLOC = 1362
 II,JST,KST,LST =  6  1  1  1 NREC =         1 INTLOC = 1938
 II,JST,KST,LST =  7  1  1  1 NREC =         1 INTLOC = 6820
 II,JST,KST,LST =  8  1  1  1 NREC =         1 INTLOC = 8116
 II,JST,KST,LST =  9  1  1  1 NREC =         2 INTLOC =  938
 II,JST,KST,LST = 10  1  1  1 NREC =         3 INTLOC =  934
 II,JST,KST,LST = 11  1  1  1 NREC =         5 INTLOC = 9683
 II,JST,KST,LST = 12  1  1  1 NREC =         8 INTLOC =12362
 II,JST,KST,LST = 13  1  1  1 NREC =         9 INTLOC = 6478
 II,JST,KST,LST = 14  1  1  1 NREC =        15 INTLOC = 9118
 II,JST,KST,LST = 15  1  1  1 NREC =        16 INTLOC = 8551
 II,JST,KST,LST = 16  1  1  1 NREC =        25 INTLOC = 4654
 II,JST,KST,LST = 17  1  1  1 NREC =        27 INTLOC = 8124
 II,JST,KST,LST = 18  1  1  1 NREC =        29 INTLOC =10723
 II,JST,KST,LST = 19  1  1  1 NREC =        32 INTLOC =11227
 II,JST,KST,LST = 20  1  1  1 NREC =        35 INTLOC =11932
 II,JST,KST,LST = 21  1  1  1 NREC =        39 INTLOC = 4100
 II,JST,KST,LST = 22  1  1  1 NREC =        42 INTLOC =14709
 II,JST,KST,LST = 23  1  1  1 NREC =        46 INTLOC =13904
 SCHWARZ INEQUALITY TEST SKIPPED        7517 INTEGRAL BLOCKS.
 TOTAL NUMBER OF NONZERO TWO-ELECTRON INTEGRALS =              748246
         50 INTEGRAL RECORDS WERE STORED ON DISK FILE  8.
  ...... END OF TWO-ELECTRON INTEGRALS .....
 STEP CPU TIME =     0.16 TOTAL CPU TIME =          0.3 (      0.0 MIN)
 TOTAL WALL CLOCK TIME=          0.3 SECONDS, CPU UTILIZATION IS    87.50%

          ---------------------------
                  UHF SCF CALCULATION
          ---------------------------

     NUCLEAR ENERGY =       431.9050491791
     MAXIT = 30     NPUNCH=  2     MULT=  2
     EXTRAP=T  DAMP=F  SHIFT=F  RSTRCT=F  DIIS=F  SOSCF=T
     DENSITY MATRIX CONV=  1.00E-05
     SOSCF WILL OPTIMIZE     555 ALPHA AND     576 BETA ROTATION ANGLES.
     SOGTOL= 2.500E-01
     MEMORY REQUIRED FOR UHF/ROHF ITERS=     65789 WORDS.

 ITER EX      TOTAL ENERGY        E CHANGE  DENSITY CHANGE    ORB. GRAD 
   1  0    -2736.8874548377 -2736.8874548377  12.334957366   0.000000000
          ---------------START SECOND ORDER SCF---------------
   2  1    -2737.4821381972    -0.5946833595   0.192887938   0.033461426
   3  2    -2737.5010008944    -0.0188626972   0.102546633   0.016498169
   4  3    -2737.5064486507    -0.0054477563   0.035484059   0.005991114
   5  4    -2737.5073511395    -0.0009024888   0.024387179   0.003125536
   6  5    -2737.5076521706    -0.0003010311   0.003652000   0.001368806
   7  6    -2737.5076678861    -0.0000157155   0.001626963   0.000531970
   8  7    -2737.5076720095    -0.0000041234   0.000607738   0.000130105
   9  8    -2737.5076726735    -0.0000006639   0.000344433   0.000060490
  10  9    -2737.5076728132    -0.0000001397   0.000104155   0.000032787
  11 10    -2737.5076728338    -0.0000000207   0.000057084   0.000009996
  12 11    -2737.5076728387    -0.0000000048   0.000024271   0.000006113
  13 12    -2737.5076728396    -0.0000000009   0.000010578   0.000002691
  14 13    -2737.5076728398    -0.0000000002   0.000004343   0.000001009

          -----------------
          DENSITY CONVERGED
          -----------------
     TIME TO FORM FOCK OPERATORS=       0.2 SECONDS (       0.0 SEC/ITER)
     TIME TO SOLVE SCF EQUATIONS=       0.0 SECONDS (       0.0 SEC/ITER)

 FINAL UHF ENERGY IS    -2737.5076728398 AFTER  14 ITERATIONS

          --------------------
          SPIN SZ   =    0.500
          S-SQUARED =    0.864
          --------------------

  ----- ALPHA SET ----- 

          ------------
          EIGENVECTORS
          ------------

                      1          2          3          4          5
                 -484.8612   -63.7700   -57.8996   -57.8995   -57.8985
                     A          A          A          A          A   
    1  C  1  S   -0.000000  -0.000002  -0.000000  -0.000000  -0.000000
    2  C  1  S    0.000000   0.000017   0.000003   0.000000  -0.000001
    3  C  1  X    0.000000  -0.000004  -0.000000   0.000000   0.000004
    4  C  1  Y    0.000000   0.000000   0.000000   0.000001  -0.000000
    5  C  1  Z   -0.000000  -0.000040  -0.000002   0.000000  -0.000001
    6  C  2  S   -0.000000  -0.000009   0.000000  -0.000001  -0.000002
    7  C  2  S    0.000001   0.000200   0.000008   0.000014   0.000031
    8  C  2  X    0.000000   0.000068   0.000008   0.000007   0.000003
    9  C  2  Y   -0.000000  -0.000056  -0.000001  -0.000002  -0.000001
   10  C  2  Z   -0.000001  -0.000188  -0.000015  -0.000008   0.000004
   11  C  3  S    0.000002   0.000371   0.000034   0.000023   0.000001
   12  C  3  S   -0.000013  -0.002277  -0.000229  -0.000160  -0.000007
   13  C  3  X   -0.000012  -0.002058  -0.000206  -0.000123   0.000043
   14  C  3  Y   -0.000002  -0.000350  -0.000063  -0.000009  -0.000004
   15  C  3  Z    0.000008   0.001412   0.000138   0.000085   0.000082
   16  BR 4  S    0.994693   0.419589  -0.000781   0.000000  -0.000006
   17  BR 4  S    0.014822  -1.059826   0.001988  -0.000000   0.000014
   18  BR 4  X   -0.000007   0.001333   0.802468   0.002393   0.584656
   19  BR 4  Y   -0.000000   0.000001   0.000824   0.992881  -0.005194
   20  BR 4  Z    0.000005  -0.000965  -0.584632   0.004683   0.802497
   21  BR 4  S   -0.073390   2.443513  -0.004210   0.000000  -0.000021
   22  BR 4  X    0.000004   0.000475   0.015126   0.000045   0.010942
   23  BR 4  Y    0.000000   0.000000   0.000016   0.018593  -0.000097
   24  BR 4  Z   -0.000003  -0.000317  -0.011017   0.000088   0.015015
   25  BR 4 XX    0.032041  -1.127775   0.001859  -0.000000  -0.000068
   26  BR 4 YY    0.032040  -1.127774   0.001965  -0.000000   0.000009
   27  BR 4 ZZ    0.032040  -1.127776   0.001907   0.000000   0.000085
   28  BR 4 XY    0.000000  -0.000000  -0.000000  -0.000074   0.000000
   29  BR 4 XZ   -0.000001   0.000006   0.000085  -0.000000  -0.000029
   30  BR 4 YZ   -0.000000   0.000000   0.000000   0.000053  -0.000000
   31  BR 4  S    0.000098   0.019478   0.000187  -0.000000   0.000010
   32  BR 4  X   -0.000012  -0.002023  -0.001258  -0.000003  -0.000778
   33  BR 4  Y   -0.000000  -0.000001  -0.000001  -0.001360   0.000007
   34  BR 4  Z    0.000008   0.001327   0.000904  -0.000006  -0.001050
   35  C  5  S    0.000002   0.000371   0.000034  -0.000023   0.000001
   36  C  5  S   -0.000013  -0.002277  -0.000229   0.000160  -0.000007
   37  C  5  X   -0.000012  -0.002056  -0.000206   0.000123   0.000043
   38  C  5  Y    0.000002   0.000346   0.000062  -0.000009   0.000003
   39  C  5  Z    0.000008   0.001415   0.000138  -0.000085   0.000082
   40  C  6  S   -0.000000  -0.000009   0.000000   0.000001  -0.000002
   41  C  6  S    0.000001   0.000200   0.000008  -0.000014   0.000031
   42  C  6  X    0.000000   0.000068   0.000008  -0.000007   0.000003
   43  C  6  Y    0.000000   0.000057   0.000001  -0.000002   0.000001
   44  C  6  Z   -0.000001  -0.000188  -0.000015   0.000008   0.000004
   45  H  7  S   -0.000000  -0.000035  -0.000004   0.000000   0.000000
   46  H  8  S   -0.000000  -0.000002  -0.000001  -0.000000   0.000002
   47  H  9  S   -0.000002  -0.000408  -0.000018  -0.000021  -0.000036
   48  H 10  S   -0.000000  -0.000027  -0.000001  -0.000001  -0.000005
   49  H 11  S   -0.000000  -0.000089  -0.000008   0.000000  -0.000021
   50  H 12  S   -0.000000  -0.000089  -0.000008  -0.000000  -0.000021
   51  H 13  S   -0.000002  -0.000408  -0.000018   0.000021  -0.000036
   52  H 14  S   -0.000000  -0.000027  -0.000001   0.000001  -0.000005

                      6          7          8          9         10
                  -11.0392   -11.0383   -11.0382   -11.0153   -11.0151
                     A          A          A          A          A   
    1  C  1  S    0.982948   0.000145   0.132945   0.000011   0.003602
    2  C  1  S    0.038364  -0.000002  -0.003262   0.000000   0.000138
    3  C  1  X    0.001414  -0.000015  -0.003494  -0.000001  -0.000418
    4  C  1  Y   -0.000004  -0.004840   0.000009   0.000048   0.000003
    5  C  1  Z    0.000080  -0.000022   0.000862  -0.000001  -0.000357
    6  C  2  S   -0.093081  -0.700744   0.695869  -0.003477   0.005903
    7  C  2  S   -0.009415  -0.026392   0.025289   0.004103  -0.003808
    8  C  2  X    0.002870  -0.000261   0.000258   0.002409  -0.002466
    9  C  2  Y   -0.003236  -0.000789  -0.000223   0.000741  -0.000914
   10  C  2  Z   -0.000569   0.000104   0.000032   0.001735  -0.001568
   11  C  3  S   -0.001715   0.002830  -0.005422  -0.698794   0.703779
   12  C  3  S    0.000462   0.004373  -0.004076  -0.030495   0.021720
   13  C  3  X   -0.000149  -0.002405   0.002377   0.001309  -0.000330
   14  C  3  Y   -0.000232  -0.000814   0.000836  -0.005315  -0.001170
   15  C  3  Z   -0.000355  -0.001580   0.001667  -0.000706  -0.000104
   16  BR 4  S   -0.000000  -0.000000  -0.000000   0.000000   0.000040
   17  BR 4  S   -0.000000   0.000000   0.000004  -0.000000  -0.000131
   18  BR 4  X   -0.000002   0.000000   0.000000   0.000000   0.000105
   19  BR 4  Y    0.000000   0.000002   0.000000  -0.000100   0.000000
   20  BR 4  Z   -0.000001   0.000000  -0.000001  -0.000001  -0.000070
   21  BR 4  S    0.000000   0.000000   0.000007  -0.000003  -0.000808
   22  BR 4  X    0.000008  -0.000000  -0.000002  -0.000000  -0.000358
   23  BR 4  Y   -0.000000  -0.000007  -0.000000   0.000333  -0.000001
   24  BR 4  Z    0.000002  -0.000000   0.000005   0.000002   0.000240
   25  BR 4 XX   -0.000003  -0.000000   0.000006   0.000001   0.000354
   26  BR 4 YY   -0.000003   0.000000   0.000001   0.000001   0.000396
   27  BR 4 ZZ   -0.000002   0.000000  -0.000001   0.000001   0.000387
   28  BR 4 XY   -0.000000  -0.000004  -0.000000   0.000047  -0.000000
   29  BR 4 XZ    0.000000  -0.000000  -0.000002   0.000000   0.000044
   30  BR 4 YZ   -0.000000   0.000001   0.000000  -0.000031   0.000000
   31  BR 4  S   -0.000025   0.000000   0.000162  -0.000014  -0.004315
   32  BR 4  X   -0.000017   0.000000  -0.000142   0.000005   0.003614
   33  BR 4  Y    0.000000   0.000107   0.000000  -0.002771   0.000011
   34  BR 4  Z   -0.000020   0.000000  -0.000019  -0.000021  -0.002406
   35  C  5  S   -0.001715  -0.002839  -0.005417   0.703234   0.699343
   36  C  5  S    0.000462  -0.004380  -0.004069   0.030632   0.021526
   37  C  5  X   -0.000148   0.002405   0.002369  -0.001337  -0.000316
   38  C  5  Y    0.000236  -0.000842  -0.000862  -0.005308   0.001207
   39  C  5  Z   -0.000353   0.001575   0.001656   0.000656  -0.000098
   40  C  6  S   -0.093120   0.701968   0.694629   0.003514   0.005880
   41  C  6  S   -0.009416   0.026436   0.025243  -0.004127  -0.003782
   42  C  6  X    0.002886   0.000258   0.000259  -0.002421  -0.002446
   43  C  6  Y    0.003227  -0.000788   0.000223   0.000775   0.000935
   44  C  6  Z   -0.000539  -0.000112   0.000034  -0.001738  -0.001549
   45  H  7  S   -0.006741  -0.000001  -0.000882  -0.000000  -0.000134
   46  H  8  S   -0.006669  -0.000001  -0.000730  -0.000001  -0.000263
   47  H  9  S    0.000646   0.004833  -0.004725   0.000076  -0.000005
   48  H 10  S    0.000766   0.004587  -0.004813  -0.000083  -0.000060
   49  H 11  S    0.000081  -0.000113   0.000048   0.004982  -0.004761
   50  H 12  S    0.000081   0.000113   0.000048  -0.005012  -0.004729
   51  H 13  S    0.000647  -0.004842  -0.004716  -0.000076  -0.000005
   52  H 14  S    0.000766  -0.004595  -0.004805   0.000082  -0.000061

                     11         12         13         14         15
                   -9.2564    -6.9476    -6.9411    -6.9375    -2.3360
                     A          A          A          A          A   
    1  C  1  S   -0.000005   0.000012   0.000000   0.000019   0.000000
    2  C  1  S    0.000028  -0.000085  -0.000000  -0.000015  -0.000052
    3  C  1  X    0.000012  -0.000036  -0.000000  -0.000124  -0.000037
    4  C  1  Y    0.000000  -0.000000  -0.000028   0.000000  -0.000000
    5  C  1  Z   -0.000055   0.000064  -0.000000   0.000023   0.000038
    6  C  2  S    0.000004  -0.000021   0.000010   0.000019  -0.000050
    7  C  2  S    0.000232  -0.000210  -0.000340  -0.000713   0.000355
    8  C  2  X    0.000040  -0.000120  -0.000099   0.000015   0.000683
    9  C  2  Y   -0.000088   0.000080   0.000063   0.000083   0.000602
   10  C  2  Z   -0.000203   0.000285   0.000149  -0.000134  -0.000614
   11  C  3  S    0.000632  -0.000989  -0.000640  -0.000013   0.003382
   12  C  3  S   -0.003212   0.006831   0.004300   0.000084  -0.010783
   13  C  3  X   -0.002730   0.005607   0.003199  -0.001260  -0.009534
   14  C  3  Y   -0.000464   0.001669   0.000001   0.000071  -0.006103
   15  C  3  Z    0.001859  -0.003743  -0.002186  -0.002135   0.006487
   16  BR 4  S    0.170425   0.002196  -0.000000   0.000005   0.000157
   17  BR 4  S   -0.524630  -0.006797   0.000000  -0.000016  -0.000424
   18  BR 4  X    0.003975  -0.341595  -0.001020  -0.240219   0.001437
   19  BR 4  Y    0.000003  -0.000292  -0.417886   0.002192   0.000001
   20  BR 4  Z   -0.002801   0.239927  -0.001961  -0.342047  -0.001026
   21  BR 4  S    2.305830   0.028454  -0.000000   0.000026   0.002873
   22  BR 4  X   -0.009922   0.871287   0.002603   0.613005  -0.003663
   23  BR 4  Y   -0.000009   0.000745   1.066332  -0.005592  -0.000003
   24  BR 4  Z    0.006998  -0.611971   0.005004   0.872860   0.002619
   25  BR 4 XX   -0.550537  -0.009471  -0.000016  -0.003873  -0.518487
   26  BR 4 YY   -0.551976  -0.003561  -0.000006  -0.000003   0.556972
   27  BR 4 ZZ   -0.551486  -0.006440   0.000022   0.003879  -0.040497
   28  BR 4 XY    0.000003  -0.000006  -0.003809   0.000018  -0.000638
   29  BR 4 XZ   -0.001581   0.004824  -0.000011  -0.001595   0.782228
   30  BR 4 YZ    0.000001   0.000004   0.002690  -0.000017   0.001327
   31  BR 4  S    0.031755  -0.006540  -0.000000  -0.000190   0.007074
   32  BR 4  X   -0.003525   0.043737   0.000113   0.025983  -0.007937
   33  BR 4  Y   -0.000002   0.000036   0.046415  -0.000236  -0.000006
   34  BR 4  Z    0.002338  -0.030510   0.000218   0.036731   0.005387
   35  C  5  S    0.000632  -0.000989   0.000640  -0.000013   0.003382
   36  C  5  S   -0.003212   0.006831  -0.004300   0.000084  -0.010783
   37  C  5  X   -0.002728   0.005599  -0.003199  -0.001260  -0.009504
   38  C  5  Y    0.000460  -0.001661  -0.000004  -0.000044   0.006088
   39  C  5  Z    0.001863  -0.003758   0.002186  -0.002136   0.006544
   40  C  6  S    0.000004  -0.000021  -0.000010   0.000019  -0.000050
   41  C  6  S    0.000232  -0.000210   0.000340  -0.000713   0.000355
   42  C  6  X    0.000040  -0.000121   0.000100   0.000015   0.000680
   43  C  6  Y    0.000090  -0.000082   0.000064  -0.000081  -0.000600
   44  C  6  Z   -0.000202   0.000285  -0.000148  -0.000134  -0.000620
   45  H  7  S   -0.000042   0.000093   0.000000  -0.000004  -0.000142
   46  H  8  S   -0.000001   0.000003   0.000000  -0.000053  -0.000003
   47  H  9  S   -0.000544   0.000511   0.000562   0.001001   0.000180
   48  H 10  S   -0.000036   0.000043   0.000028   0.000109   0.000032
   49  H 11  S   -0.000118   0.000169  -0.000013   0.000447  -0.000114
   50  H 12  S   -0.000118   0.000169   0.000013   0.000447  -0.000114
   51  H 13  S   -0.000544   0.000511  -0.000562   0.001001   0.000180
   52  H 14  S   -0.000036   0.000043  -0.000028   0.000109   0.000032

                     16         17         18         19         20
                   -2.3332    -2.3305    -2.3198    -2.3198    -1.1332
                     A          A          A          A          A   
    1  C  1  S    0.000000  -0.000020  -0.000000  -0.000023  -0.075868
    2  C  1  S   -0.000000  -0.000019   0.000000   0.000089   0.191611
    3  C  1  X   -0.000000   0.000129  -0.000000   0.000162   0.053690
    4  C  1  Y   -0.000014  -0.000000  -0.000054  -0.000001  -0.000125
    5  C  1  Z   -0.000000   0.000020  -0.000000   0.000055  -0.001270
    6  C  2  S    0.000052  -0.000039   0.000005   0.000039  -0.083499
    7  C  2  S   -0.000722   0.001321  -0.000652  -0.000179   0.210682
    8  C  2  X   -0.000749   0.000435  -0.000099  -0.000410   0.021478
    9  C  2  Y   -0.000067   0.000179  -0.000022  -0.000100   0.048403
   10  C  2  Z    0.000445   0.000361  -0.000094   0.000082   0.023024
   11  C  3  S   -0.003042   0.000210  -0.000100  -0.000784  -0.128172
   12  C  3  S    0.013810  -0.000652   0.000442   0.003054   0.338318
   13  C  3  X    0.010220   0.002583  -0.001232   0.002909   0.001081
   14  C  3  Y    0.003441  -0.000318   0.000135  -0.000751   0.074911
   15  C  3  Z   -0.007057   0.005081  -0.002546  -0.001826  -0.040975
   16  BR 4  S    0.000000  -0.000009   0.000000  -0.000033  -0.010821
   17  BR 4  S   -0.000000   0.000033  -0.000000   0.000089   0.033669
   18  BR 4  X   -0.000004   0.001067  -0.000000  -0.000000  -0.010877
   19  BR 4  Y   -0.001639  -0.000010  -0.000001  -0.000000  -0.000004
   20  BR 4  Z   -0.000008   0.001534  -0.000000   0.000019   0.006452
   21  BR 4  S    0.000000  -0.000078   0.000000  -0.000653  -0.163916
   22  BR 4  X    0.000011  -0.002843  -0.000000  -0.000051   0.032420
   23  BR 4  Y    0.004319   0.000026  -0.000000   0.000000   0.000011
   24  BR 4  Z    0.000020  -0.004108  -0.000000  -0.000013  -0.019227
   25  BR 4 XX    0.003443  -0.815042   0.002454  -0.259047   0.027457
   26  BR 4 YY    0.001271  -0.005008  -0.009072   0.830070   0.042489
   27  BR 4 ZZ   -0.004713   0.820096   0.006618  -0.570556   0.038615
   28  BR 4 XY    0.814135   0.003830   0.580173   0.005548  -0.000015
   29  BR 4 XZ    0.002404  -0.329531   0.004711  -0.527944   0.012297
   30  BR 4 YZ   -0.579991  -0.003666   0.814412   0.008877  -0.000009
   31  BR 4  S   -0.000000   0.000463  -0.000000  -0.001758   0.244258
   32  BR 4  X    0.000009  -0.000764   0.000000   0.002020  -0.065909
   33  BR 4  Y    0.003876   0.000003   0.000120   0.000002  -0.000019
   34  BR 4  Z    0.000018  -0.000256   0.000001  -0.001391   0.038259
   35  C  5  S    0.003042   0.000210   0.000100  -0.000784  -0.128173
   36  C  5  S   -0.013810  -0.000652  -0.000442   0.003054   0.338320
   37  C  5  X   -0.010203   0.002585   0.001233   0.002913   0.000715
   38  C  5  Y    0.003424   0.000258   0.000105   0.000754  -0.074528
   39  C  5  Z    0.007089   0.005083   0.002547  -0.001819  -0.041678
   40  C  6  S   -0.000052  -0.000039  -0.000005   0.000039  -0.083500
   41  C  6  S    0.000722   0.001321   0.000652  -0.000179   0.210684
   42  C  6  X    0.000749   0.000434   0.000099  -0.000409   0.021242
   43  C  6  Y   -0.000066  -0.000184  -0.000024   0.000101  -0.048721
   44  C  6  Z   -0.000446   0.000359   0.000093   0.000083   0.022568
   45  H  7  S    0.000000   0.000001  -0.000000   0.000061   0.035824
   46  H  8  S    0.000000   0.000048  -0.000000   0.000035   0.029169
   47  H  9  S    0.000304  -0.000594   0.000630  -0.000393   0.041399
   48  H 10  S    0.000042  -0.000083   0.000048  -0.000038   0.032275
   49  H 11  S   -0.000056  -0.001091   0.000397  -0.000222   0.052382
   50  H 12  S    0.000056  -0.001091  -0.000397  -0.000222   0.052382
   51  H 13  S   -0.000304  -0.000594  -0.000630  -0.000393   0.041399
   52  H 14  S   -0.000042  -0.000083  -0.000048  -0.000038   0.032275

                     21         22         23         24         25
                   -0.9937    -0.9126    -0.8191    -0.7501    -0.7050
                     A          A          A          A          A   
    1  C  1  S   -0.144825   0.000001  -0.085286  -0.119796  -0.000001
    2  C  1  S    0.398771  -0.000002   0.259809   0.379445   0.000003
    3  C  1  X    0.051060   0.000329  -0.053107  -0.128271  -0.000376
    4  C  1  Y   -0.000082   0.134731   0.000260  -0.000057  -0.153584
    5  C  1  Z   -0.009373   0.000633  -0.027541   0.079836  -0.000719
    6  C  2  S   -0.084276   0.144814   0.006776   0.087899  -0.063741
    7  C  2  S    0.229179  -0.417071  -0.019958  -0.276196   0.203539
    8  C  2  X   -0.065622  -0.027607  -0.080383  -0.088772  -0.139836
    9  C  2  Y    0.053175   0.012392   0.016466   0.083802  -0.037332
   10  C  2  Z   -0.004273  -0.018662  -0.054893   0.087987  -0.090127
   11  C  3  S    0.064603   0.086306   0.081291  -0.030194   0.127880
   12  C  3  S   -0.189533  -0.265597  -0.247421   0.094778  -0.448087
   13  C  3  X   -0.103111   0.044136   0.103824   0.053048  -0.079696
   14  C  3  Y   -0.061678   0.074557  -0.044696   0.086648   0.127411
   15  C  3  Z    0.003534   0.043816  -0.084724   0.139710  -0.042139
   16  BR 4  S    0.016020   0.000000  -0.027070   0.003447   0.000000
   17  BR 4  S   -0.050373  -0.000001   0.086503  -0.011169  -0.000000
   18  BR 4  X    0.009630   0.000014   0.001244   0.000565   0.000040
   19  BR 4  Y    0.000012   0.005636   0.000005  -0.000035   0.016435
   20  BR 4  Z   -0.007642   0.000026  -0.001625   0.007029   0.000077
   21  BR 4  S    0.240647   0.000003  -0.401873   0.050591   0.000001
   22  BR 4  X   -0.028768  -0.000041  -0.003772  -0.001698  -0.000120
   23  BR 4  Y   -0.000037  -0.016888  -0.000014   0.000104  -0.049423
   24  BR 4  Z    0.022826  -0.000079   0.004910  -0.021120  -0.000232
   25  BR 4 XX   -0.049618   0.000024   0.093495  -0.010699   0.000036
   26  BR 4 YY   -0.057937  -0.000003   0.089737  -0.009942   0.000019
   27  BR 4 ZZ   -0.053837  -0.000023   0.092086  -0.014686  -0.000057
   28  BR 4 XY    0.000024   0.005916   0.000003  -0.000018   0.008719
   29  BR 4 XZ   -0.010039   0.000021  -0.002884   0.004328   0.000024
   30  BR 4 YZ    0.000002  -0.002801  -0.000006   0.000015  -0.006954
   31  BR 4  S   -0.398634  -0.000006   0.763110  -0.106177  -0.000003
   32  BR 4  X    0.064310   0.000108   0.005543   0.009947   0.000348
   33  BR 4  Y    0.000085   0.044075   0.000038  -0.000301   0.142741
   34  BR 4  Z   -0.051510   0.000206  -0.010785   0.058763   0.000671
   35  C  5  S    0.064603  -0.086306   0.081290  -0.030192  -0.127881
   36  C  5  S   -0.189533   0.265595  -0.247416   0.094771   0.448090
   37  C  5  X   -0.102809  -0.043774   0.104044   0.052619   0.080316
   38  C  5  Y    0.062145   0.075182   0.044984  -0.088216   0.126614
   39  C  5  Z    0.004115  -0.043115  -0.084302   0.138889   0.043333
   40  C  6  S   -0.084274  -0.144816   0.006775   0.087896   0.063743
   41  C  6  S    0.229174   0.417075  -0.019955  -0.276187  -0.203546
   42  C  6  X   -0.065880   0.027670  -0.080461  -0.089187   0.139649
   43  C  6  Y   -0.052811   0.012082  -0.015556  -0.084188  -0.038862
   44  C  6  Z   -0.004771   0.018778  -0.055044   0.087198   0.089776
   45  H  7  S    0.089991  -0.000000   0.072422   0.203028   0.000002
   46  H  8  S    0.090596  -0.000000   0.113171   0.161489  -0.000000
   47  H  9  S    0.051518  -0.112865   0.017598  -0.171217   0.107509
   48  H 10  S    0.051618  -0.122610  -0.005980  -0.105979   0.113924
   49  H 11  S   -0.038885  -0.066181  -0.110262   0.092822  -0.209510
   50  H 12  S   -0.038885   0.066179  -0.110259   0.092820   0.209509
   51  H 13  S    0.051517   0.112867   0.017599  -0.171215  -0.107516
   52  H 14  S    0.051617   0.122610  -0.005979  -0.105973  -0.113926

                     26         27         28         29         30
                   -0.6294    -0.5966    -0.5382    -0.5311    -0.4563
                     A          A          A          A          A   
    1  C  1  S    0.015099   0.012321   0.000001  -0.002999  -0.000328
    2  C  1  S   -0.049027  -0.041044  -0.000002   0.013545   0.005819
    3  C  1  X   -0.155345   0.161778   0.000485   0.295268   0.299621
    4  C  1  Y    0.000181  -0.001983   0.193953   0.000083  -0.001158
    5  C  1  Z    0.042057   0.338383   0.000902  -0.173813   0.088170
    6  C  2  S   -0.027590  -0.010335  -0.003625  -0.008036  -0.016235
    7  C  2  S    0.093609   0.033520   0.011206   0.029629   0.057329
    8  C  2  X   -0.085193   0.025644   0.218677  -0.072545  -0.284941
    9  C  2  Y   -0.269052   0.013565   0.040868   0.187779  -0.031703
   10  C  2  Z    0.039640   0.241845  -0.272026  -0.054188  -0.034830
   11  C  3  S    0.000507   0.017792  -0.005860   0.022816   0.022553
   12  C  3  S   -0.000288  -0.068000   0.040526  -0.102141  -0.086341
   13  C  3  X    0.066350  -0.188782   0.091768  -0.104945   0.193437
   14  C  3  Y   -0.174705  -0.053525   0.002502  -0.052568   0.288632
   15  C  3  Z    0.196505  -0.052303  -0.198749   0.271443   0.063833
   16  BR 4  S   -0.004713  -0.008968  -0.000000  -0.009737   0.002909
   17  BR 4  S    0.015450   0.029326   0.000001   0.032146  -0.009913
   18  BR 4  X    0.013431   0.013469  -0.000056   0.034484  -0.005891
   19  BR 4  Y   -0.000047   0.000031  -0.023409  -0.000035  -0.000132
   20  BR 4  Z    0.003042  -0.013619  -0.000110  -0.010095   0.031028
   21  BR 4  S   -0.068473  -0.131002  -0.000006  -0.141270   0.040794
   22  BR 4  X   -0.040398  -0.040499   0.000168  -0.103805   0.017671
   23  BR 4  Y    0.000141  -0.000093   0.070556   0.000107   0.000397
   24  BR 4  Z   -0.009186   0.040970   0.000332   0.030328  -0.093533
   25  BR 4 XX    0.022828   0.032431  -0.000027   0.040984  -0.011848
   26  BR 4 YY    0.013005   0.028234   0.000010   0.030545  -0.006136
   27  BR 4 ZZ    0.012748   0.032042   0.000022   0.029867  -0.012652
   28  BR 4 XY   -0.000015   0.000019  -0.006879   0.000006  -0.000016
   29  BR 4 XZ   -0.002637  -0.006475  -0.000027  -0.007514   0.006745
   30  BR 4 YZ    0.000008  -0.000005   0.002496   0.000022   0.000019
   31  BR 4  S    0.155658   0.292638   0.000015   0.335079  -0.116708
   32  BR 4  X    0.113994   0.111628  -0.000528   0.306137  -0.037777
   33  BR 4  Y   -0.000442   0.000273  -0.221870  -0.000359  -0.001296
   34  BR 4  Z    0.035423  -0.116462  -0.001044  -0.079934   0.295187
   35  C  5  S    0.000505   0.017793   0.005862   0.022815   0.022556
   36  C  5  S   -0.000282  -0.068004  -0.040534  -0.102134  -0.086351
   37  C  5  X    0.067200  -0.188521  -0.091769  -0.104683   0.192053
   38  C  5  Y    0.172529   0.054934   0.001090   0.050530  -0.290159
   39  C  5  Z    0.198133  -0.051796   0.198788   0.271908   0.061159
   40  C  6  S   -0.027590  -0.010336   0.003623  -0.008036  -0.016232
   41  C  6  S    0.093609   0.033522  -0.011199   0.029630   0.057318
   42  C  6  X   -0.083875   0.025572  -0.218488  -0.073443  -0.284802
   43  C  6  Y    0.269079  -0.015963   0.039370  -0.186900   0.033457
   44  C  6  Z    0.042164   0.241707   0.272400  -0.055967  -0.034564
   45  H  7  S    0.057160   0.190243  -0.000010  -0.219828  -0.020072
   46  H  8  S    0.049077  -0.280621  -0.000003  -0.100631  -0.295555
   47  H  9  S    0.002749  -0.171657   0.278251   0.034609  -0.020943
   48  H 10  S    0.243505   0.051336  -0.168338  -0.119305   0.158028
   49  H 11  S    0.178566  -0.059397  -0.135274   0.185912  -0.083866
   50  H 12  S    0.178567  -0.059402   0.135289   0.185901  -0.083828
   51  H 13  S    0.002753  -0.171656  -0.278248   0.034629  -0.020912
   52  H 14  S    0.243501   0.051335   0.168335  -0.119311   0.158052

                     31         32         33         34         35
                   -0.4395    -0.4380    -0.4270    -0.4229    -0.3915
                     A          A          A          A          A   
    1  C  1  S   -0.005533   0.000003   0.000002   0.000001  -0.034345
    2  C  1  S    0.018371  -0.000010  -0.000006  -0.000002   0.136612
    3  C  1  X    0.021595  -0.000634   0.000872   0.000566   0.226117
    4  C  1  Y   -0.002032  -0.246034   0.361835   0.230249  -0.000109
    5  C  1  Z    0.394010  -0.001368   0.001701   0.001080  -0.091080
    6  C  2  S    0.006483  -0.031279   0.001136  -0.005451  -0.009682
    7  C  2  S   -0.025134   0.123600  -0.006317   0.019708   0.043004
    8  C  2  X    0.091132   0.112296   0.211514   0.176063  -0.027131
    9  C  2  Y    0.046635   0.344686  -0.244457  -0.037079   0.120733
   10  C  2  Z   -0.235655   0.174886   0.220073  -0.096946   0.121001
   11  C  3  S    0.010195  -0.016197   0.003429   0.003700  -0.005048
   12  C  3  S   -0.033586   0.055942  -0.010427  -0.049858   0.052236
   13  C  3  X    0.132136  -0.237459  -0.126259  -0.223358   0.249293
   14  C  3  Y   -0.123709   0.013805  -0.022083  -0.016664  -0.425711
   15  C  3  Z    0.063731  -0.180692  -0.224862   0.180004  -0.143223
   16  BR 4  S    0.001899  -0.000001  -0.000000   0.000000   0.004304
   17  BR 4  S   -0.006171   0.000004   0.000001  -0.000000  -0.014261
   18  BR 4  X   -0.003304   0.000039   0.000004   0.000173  -0.014064
   19  BR 4  Y   -0.000004   0.015307   0.001135   0.071111  -0.000133
   20  BR 4  Z    0.004345   0.000067   0.000003   0.000334   0.035807
   21  BR 4  S    0.028208  -0.000017  -0.000004   0.000000   0.062911
   22  BR 4  X    0.009940  -0.000118  -0.000011  -0.000524   0.042312
   23  BR 4  Y    0.000011  -0.046194  -0.003427  -0.214630   0.000402
   24  BR 4  Z   -0.013094  -0.000202  -0.000010  -0.001009  -0.107993
   25  BR 4 XX   -0.004733   0.000005  -0.000003   0.000030  -0.013533
   26  BR 4 YY   -0.007659   0.000025   0.000017   0.000010  -0.018451
   27  BR 4 ZZ   -0.007481  -0.000018  -0.000011  -0.000040  -0.013554
   28  BR 4 XY   -0.000007   0.000512  -0.000993   0.007076  -0.000022
   29  BR 4 XZ   -0.000195  -0.000005  -0.000008   0.000021   0.001738
   30  BR 4 YZ   -0.000002  -0.002766  -0.001427  -0.004909  -0.000031
   31  BR 4  S   -0.060078   0.000038   0.000010  -0.000001  -0.151071
   32  BR 4  X   -0.032982   0.000385   0.000037   0.001731  -0.128807
[...]
                   Y -0.00011119 -0.14616163  0.00015485  0.30601738  0.34923545
                   Z -0.02223179 -0.00068471 -0.00046755  0.00143803  0.00164066
  9   H            X  0.36256119  0.04781934 -0.15848141 -0.37369732  0.08753514
                   Y -0.20138400 -0.03255222  0.06968920  0.17598609 -0.02328825
                   Z  0.12277347  0.00917179 -0.04392496 -0.12132751  0.02266173
 10   H            X -0.33640652  0.19365864  0.05494291 -0.22168442 -0.11325816
                   Y  0.18598421 -0.02429110  0.04833518  0.07172779  0.13221322
                   Z -0.07610414  0.08739518  0.04688505 -0.07406790  0.01201664
 11   H            X -0.03021111  0.26803661  0.17664245  0.03648684  0.05391890
                   Y  0.00485186  0.48704097  0.21135484  0.13809493  0.09502223
                   Z  0.00075417  0.14593715  0.13095512  0.01288246  0.02129093
 12   H            X -0.03023788 -0.26565143  0.17560494 -0.03581076 -0.05345375
                   Y -0.00470475  0.48969352 -0.21343569  0.13838514  0.09548019
                   Z  0.00070762 -0.14135176  0.12896070 -0.01158360 -0.02039666
 13   H            X  0.36353746 -0.04798123 -0.15882146  0.37454842 -0.08764990
                   Y  0.19844900 -0.03223319 -0.06849986  0.17301107 -0.02264782
                   Z  0.12465068 -0.00947716 -0.04457466  0.12296563 -0.02287831
 14   H            X -0.33731069 -0.19376941  0.05470311  0.22203108  0.11390118
                   Y -0.18361627 -0.02252121 -0.04904185  0.06994556  0.13176491
                   Z -0.07784010 -0.08761434  0.04642737  0.07473353 -0.01077787

 TRANS. SAYVETZ    X  0.00000144  0.00000008 -0.00000134  0.00000011  0.00000004
                   Y -0.00000002  0.00000110 -0.00000001 -0.00000143 -0.00000025
                   Z  0.00000131  0.00000076 -0.00000015  0.00000047  0.00000035
               TOTAL  0.00000195  0.00000134  0.00000134  0.00000151  0.00000043

   ROT. SAYVETZ    X  0.00010237 -0.06781070  0.00012718 -0.01534268 -0.01496932
                   Y  0.04195556  0.00031891  0.05216995 -0.00003324  0.00007811
                   Z  0.00019729 -0.03145276  0.00024441  0.01584309 -0.00824105
               TOTAL  0.04195615  0.07475071  0.05217068  0.02205454  0.01708805

                           31          32          33          34          35
       FREQUENCY:      1629.19     1817.26     1821.23     1839.14     3599.47  
        SYMMETRY:         A           A           A           A           A   
    REDUCED MASS:      1.61796     1.08715     1.10347     1.12261     1.06639
    IR INTENSITY:      0.29192     0.01499     0.01142     0.00251     0.30469

  1   C            X -0.04305843  0.05057485  0.00002580 -0.07455895  0.00000787
                   Y  0.00024154 -0.00011517  0.01032998  0.00019687  0.00311909
                   Z -0.02894435 -0.00177176  0.00004847 -0.00320308  0.00001464
  2   C            X  0.09865562 -0.01004372 -0.01129941 -0.00234143 -0.00463001
                   Y -0.03909834 -0.03972671 -0.05657021 -0.04111165 -0.04181364
                   Z  0.04142348 -0.01869848 -0.02346803 -0.01209991 -0.02664979
  3   C            X -0.00795740  0.00198012  0.00096854  0.00408155 -0.00255565
                   Y  0.05253382 -0.00242114 -0.00114319  0.00272674  0.00175791
                   Z -0.00246981  0.00031754  0.00279482 -0.00030225 -0.00184406
  4   BR           X -0.00034240 -0.00006790  0.00000104 -0.00014295  0.00000077
                   Y  0.00000039 -0.00000006  0.00042809  0.00000011  0.00031422
                   Z  0.00009608  0.00003206  0.00000201  0.00006877  0.00000148
  5   C            X -0.00821391  0.00199063 -0.00097396  0.00406980  0.00256418
                   Y -0.05246869  0.00240912 -0.00111210 -0.00274457  0.00172794
                   Z -0.00296295  0.00034062 -0.00280540 -0.00032833  0.00186038
  6   C            X  0.09884456 -0.00984910  0.01102210 -0.00214086  0.00442492
                   Y  0.03822513  0.03995081 -0.05684096  0.04123497 -0.04208267
                   Z  0.04178642 -0.01832504  0.02293491 -0.01171368  0.02625504
  7   H            X -0.02759724 -0.32325232 -0.00005528  0.39670263  0.00000938
                   Y  0.00012498  0.00206248 -0.02099826 -0.00252871  0.00452587
                   Z -0.01269111 -0.27118025 -0.00010190  0.33237397  0.00002332
  8   H            X -0.13739605 -0.32721774 -0.00008154  0.39171957 -0.00000429
                   Y  0.00019591 -0.00044650 -0.03178182  0.00063611 -0.00112983
                   Z  0.02949745  0.26526350 -0.00014606 -0.33904823 -0.00000738
  9   H            X -0.33201177  0.15474614  0.19388502  0.10705495 -0.12213097
                   Y  0.11395098  0.32921189  0.41693328  0.26145186  0.15157705
                   Z -0.10981059 -0.09118542 -0.11629425 -0.07576196  0.50597214
 10   H            X -0.32644976 -0.03498312 -0.05839494 -0.06360512  0.17752255
                   Y  0.09519132  0.18376981  0.23321976  0.14875864  0.31550322
                   Z -0.12638122  0.32124491  0.40677445  0.24627707 -0.19758578
 11   H            X -0.06849703  0.00307774 -0.00387093 -0.00905211  0.01384078
                   Y -0.07488287 -0.00190109 -0.01505883 -0.01155995 -0.02272177
                   Z -0.06607979  0.00109024 -0.00230550 -0.00339988  0.04091426
 12   H            X -0.06812829  0.00308739  0.00379733 -0.00899607 -0.01395026
                   Y  0.07583261  0.00187470 -0.01509839  0.01163723 -0.02226823
                   Z -0.06537198  0.00110904  0.00216392 -0.00329239 -0.04112467
 13   H            X -0.33256133  0.15314408 -0.19184327  0.10578067  0.12287744
                   Y -0.11129190 -0.32910733  0.41675240 -0.26125119  0.15571723
                   Z -0.11086802 -0.09427992  0.12020437 -0.07821645 -0.50451227
 14   H            X -0.32690854 -0.03589003  0.05954114 -0.06433674 -0.17597789
                   Y -0.09240586 -0.18661315  0.23673339 -0.15075290  0.31448655
                   Z -0.12726191  0.31951958 -0.40455592  0.24487367  0.20053634

 TRANS. SAYVETZ    X  0.00000062  0.00000019 -0.00000004 -0.00000004 -0.00000002
                   Y  0.00000001  0.00000000  0.00000014  0.00000001  0.00000010
                   Z -0.00000008  0.00000017 -0.00000002  0.00000005 -0.00000005
               TOTAL  0.00000063  0.00000026  0.00000014  0.00000007  0.00000011

   ROT. SAYVETZ    X  0.00001853 -0.00000228  0.00023667 -0.00000568  0.00001070
                   Y  0.00751207 -0.00132105  0.00000597 -0.00185916 -0.00000286
                   Z  0.00003528 -0.00000485 -0.00139628 -0.00001033  0.00052899
               TOTAL  0.00751218  0.00132106  0.00141621  0.00185920  0.00052911

                           36          37          38          39          40
       FREQUENCY:      3600.76     3616.08     3666.86     3688.02     3717.99  
        SYMMETRY:         A           A           A           A           A   
    REDUCED MASS:      1.06635     1.06840     1.08416     1.09682     1.10943
    IR INTENSITY:      0.05004     0.08126     0.69334     0.07946     0.01488

  1   C            X  0.01360291  0.06942504  0.00000157  0.00130991  0.00000230
                   Y -0.00004446 -0.00014869  0.00066079  0.00000643  0.00096116
                   Z  0.00238120 -0.00444354  0.00000347 -0.00205142  0.00000447
  2   C            X -0.00542681 -0.00200778 -0.00240137 -0.00080364 -0.02733019
                   Y -0.04102698  0.00959892 -0.00302989 -0.00025980 -0.02567268
                   Z -0.02611293  0.00781078 -0.00399311  0.00814374  0.05249083
  3   C            X  0.00032969 -0.00005614  0.02419422 -0.01568630  0.00167983
                   Y  0.00212177 -0.00075188 -0.02305658  0.03112507  0.00094632
                   Z -0.00135784  0.00115110  0.04527892 -0.04904520 -0.00057247
  4   BR           X -0.00002129  0.00001249 -0.00000271 -0.00033475 -0.00000039
                   Y -0.00000017  0.00000004 -0.00110981 -0.00000045 -0.00016199
                   Z  0.00004533 -0.00001559 -0.00000521  0.00026894 -0.00000076
  5   C            X  0.00031925 -0.00005247 -0.02430545 -0.01583702 -0.00167514
                   Y -0.00211057  0.00074129 -0.02251192 -0.03058623  0.00094918
                   Z -0.00137778  0.00115811 -0.04549280 -0.04933502  0.00058152
  6   C            X -0.00522590 -0.00205482  0.00238648 -0.00080254  0.02720502
                   Y  0.04129783 -0.00966190 -0.00307898  0.00018725 -0.02531127
                   Z -0.02572740  0.00772036  0.00396440  0.00814584 -0.05272887
  7   H            X -0.07755053 -0.40422982  0.00000039 -0.01338835 -0.00000815
                   Y -0.00031106 -0.00168726 -0.00065969 -0.00005671 -0.00340600
                   Z  0.10656290  0.56966376 -0.00000497  0.01904365 -0.00001602
  8   H            X -0.09461359 -0.36323996 -0.00000625  0.00409063  0.00000209
                   Y  0.00085043  0.00331640 -0.00188228 -0.00003718  0.00071118
                   Z -0.13187819 -0.51745112 -0.00001135  0.00579134  0.00000378
  9   H            X -0.11955896  0.02696129 -0.01016090  0.01659979  0.08822133
                   Y  0.14804366 -0.03466372  0.00938555 -0.01909619 -0.11657794
                   Z  0.49310072 -0.12264251  0.03607171 -0.06355615 -0.37409083
 10   H            X  0.17579434 -0.02695463  0.01517583  0.01635775  0.23040363
                   Y  0.30982578 -0.04977335  0.02053719  0.03092322  0.41263274
                   Z -0.19331129  0.03264182 -0.01086351 -0.01865667 -0.24868653
 11   H            X  0.01033820 -0.00542935 -0.17033291  0.17348362 -0.00121040
                   Y -0.01472465  0.00915583  0.32148818 -0.32143047  0.00032866
                   Z  0.02391201 -0.01560789 -0.56864461  0.55875655 -0.00239539
 12   H            X  0.01040998 -0.00547363  0.17188737  0.17503854  0.00121139
                   Y  0.01444969 -0.00898226  0.31529841  0.31531912  0.00029934
                   Z  0.02405062 -0.01569310  0.57163365  0.56174713  0.00239670
 13   H            X -0.12029644  0.02713312  0.01020746  0.01669435 -0.08879621
                   Y -0.15208656  0.03568156  0.00967408  0.01961075 -0.11964986
                   Z  0.49170952 -0.12231221 -0.03598219 -0.06337441  0.37297264
 14   H            X  0.17428962 -0.02671190 -0.01507588  0.01620689 -0.22838570
                   Y -0.30886301  0.04959565  0.02050869 -0.03082611  0.41138998
                   Z -0.19622263  0.03310824  0.01105652 -0.01894648  0.25254872

 TRANS. SAYVETZ    X  0.00000011 -0.00000052  0.00000015 -0.00000013  0.00000001
                   Y  0.00000001 -0.00000004  0.00000005 -0.00000002 -0.00000005
                   Z -0.00000059  0.00000016  0.00000006 -0.00000042  0.00000003
               TOTAL  0.00000060  0.00000054  0.00000017  0.00000044  0.00000006

   ROT. SAYVETZ    X  0.00000101 -0.00000023  0.00117645  0.00002722  0.00006641
                   Y  0.00024020 -0.00010963  0.00002649  0.01115126 -0.00000016
                   Z  0.00000081 -0.00000051 -0.00627563  0.00005237  0.00004310
               TOTAL  0.00024020  0.00010964  0.00638500  0.01115141  0.00007917

                           41          42
       FREQUENCY:      3719.77     3736.62  
        SYMMETRY:         A           A   
    REDUCED MASS:      1.11102     1.11108
    IR INTENSITY:      0.02981     0.07614

  1   C            X -0.00385090 -0.00263057
                   Y  0.00010435  0.00042860
                   Z -0.02022637 -0.08992674
  2   C            X -0.02686567  0.00574405
                   Y -0.02614849  0.00391177
                   Z  0.05060216 -0.01148493
  3   C            X  0.00244043  0.00011136
                   Y -0.00326526 -0.00006631
                   Z  0.00550868 -0.00009677
  4   BR           X  0.00006866 -0.00001299
                   Y -0.00000000  0.00000000
                   Z -0.00003355  0.00000885
  5   C            X  0.00245625  0.00011172
                   Y  0.00320132  0.00006635
                   Z  0.00553888 -0.00009665
  6   C            X -0.02673947  0.00572527
                   Y  0.02580378 -0.00383187
                   Z  0.05084731 -0.01152153
  7   H            X -0.05893007 -0.36873164
                   Y -0.00026691 -0.00148841
                   Z  0.08751463  0.50884554
  8   H            X  0.10205281  0.39378895
                   Y -0.00091016 -0.00353145
                   Z  0.14078790  0.54737950
  9   H            X  0.08333780 -0.02431782
                   Y -0.11005719  0.03312418
                   Z -0.35461684  0.09483430
 10   H            X  0.22650919 -0.04285383
                   Y  0.40485885 -0.07841362
                   Z -0.24422753  0.04811149
 11   H            X -0.02039426  0.00109153
                   Y  0.03475497 -0.00074528
                   Z -0.06177629  0.00186766
 12   H            X -0.02056188  0.00109665
                   Y -0.03407256  0.00072501
                   Z -0.06209812  0.00187909
 13   H            X  0.08388475 -0.02448195
                   Y  0.11297631 -0.03389451
                   Z -0.35357874  0.09452149
 14   H            X  0.22454038 -0.04247241
                   Y -0.40365955  0.07816860
                   Z -0.24802925  0.04884766

 TRANS. SAYVETZ    X  0.00000016  0.00000002
                   Y  0.00000001  0.00000000
                   Z -0.00000017 -0.00000005
               TOTAL  0.00000023  0.00000005

   ROT. SAYVETZ    X -0.00000311 -0.00000018
                   Y -0.00129142 -0.00002046
                   Z -0.00000613 -0.00000029
               TOTAL  0.00129144  0.00002046

 REFERENCE ON SAYVETZ CONDITIONS - A. SAYVETZ, J.CHEM.PHYS., 7, 383-389(1939).

 NOTE - THE MODES J,K ARE ORTHONORMALIZED ACCORDING TO
 SUM ON I   M(I) * (X(I,J)*X(I,K) + Y(I,J)*Y(I,K) + Z(I,J)*Z(I,K)) = DELTA(J,K)

  MODE FREQ(CM**-1)  SYMMETRY  RED. MASS  IR INTENS.
     1    2235.766    A        7.420425   51.731718
     2     142.049    A        4.294193    0.002765
     3     119.497    A        6.994518    0.002148
     4      56.951    A        3.834454    0.000039
     5       0.057    A       10.498706    0.000000
     6       0.029    A       10.499332    0.000000
     7       0.192    A       10.498656    0.000000
     8     111.761    A        2.345443    0.000163
     9     212.022    A        2.105365    0.003440
    10     268.302    A        2.507140    0.007989
    11     587.857    A        3.070914    0.060445
    12     737.663    A        2.353516    0.207434
    13     770.743    A        5.796377    0.028851
    14     946.222    A        1.163134    0.081528
    15     967.589    A        1.409618    0.015897
    16     983.363    A        1.569354    0.037067
    17    1028.774    A        1.788253    0.005266
    18    1073.360    A        2.657325    0.018402
    19    1111.760    A        1.462170    0.149200
    20    1148.451    A        2.161577    0.021516
    21    1214.232    A        1.346292    0.019041
    22    1240.908    A        1.543446    0.021433
    23    1362.152    A        1.555982    0.068729
    24    1379.793    A        1.232662    0.063423
    25    1460.241    A        1.346965    0.004061
    26    1485.605    A        1.307362    0.033606
    27    1506.746    A        1.245603    0.090443
    28    1578.219    A        3.014970    0.255884
    29    1589.964    A        1.434715    0.141034
    30    1625.406    A        1.498225    0.000983
    31    1629.190    A        1.617956    0.291918
    32    1817.263    A        1.087155    0.014989
    33    1821.231    A        1.103468    0.011419
    34    1839.136    A        1.122612    0.002515
    35    3599.468    A        1.066392    0.304691
    36    3600.759    A        1.066349    0.050038
    37    3616.078    A        1.068398    0.081256
    38    3666.862    A        1.084158    0.693342
    39    3688.021    A        1.096824    0.079463
    40    3717.993    A        1.109429    0.014880
    41    3719.772    A        1.111025    0.029809
    42    3736.619    A        1.111080    0.076144

     -------------------------------
     THERMOCHEMISTRY AT T=  298.15 K
     -------------------------------

 USING IDEAL GAS, RIGID ROTOR, HARMONIC NORMAL MODE APPROXIMATIONS.
 P=  1.01325E+05 PASCAL.
 ALL FREQUENCIES ARE SCALED BY   1.00000
 THE MOMENTS OF INERTIA ARE (IN AMU*BOHR**2)
            334.03144          1105.94873          1254.60786
 THE ROTATIONAL SYMMETRY NUMBER IS  1.0
 THE ROTATIONAL CONSTANTS ARE (IN GHZ)
      5.39796     1.63035     1.43717
   1 IMAGINARY FREQUENCY VIBRATION(S) IS(ARE) EXCLUDED
     FROM THE FOLLOWING THERMOCHEMICAL ANALYSIS.
      8 -     42 VIBRATIONAL MODES ARE USED IN THERMOCHEMISTRY.
 THE HARMONIC ZERO POINT ENERGY IS (SCALED BY   1.000)
        0.138612 HARTREE/MOLECULE    30421.763378 CM**-1/MOLECULE 
       86.980274 KCAL/MOL              363.925464 KJ/MOL

               Q               LN Q
 ELEC.     2.00000E+00       0.693147
 TRANS.    7.00398E+07      18.064575
 ROT.      2.43701E+05      12.403696
 VIB.      6.15246E+00       1.816852
 TOT.      2.10030E+14      32.978269

              E         H         G         CV        CP        S
           KJ/MOL    KJ/MOL    KJ/MOL   J/MOL-K   J/MOL-K   J/MOL-K
 ELEC.      0.000     0.000    -1.718     0.000     0.000     5.763
 TRANS.     3.718     6.197   -44.781    12.472    20.786   170.982
 ROT.       3.718     3.718   -30.748    12.472    12.472   115.601
 VIB.     370.170   370.170   359.422    48.301    48.301    36.052
 TOTAL    377.607   380.086   282.174    73.244    81.559   328.398
 VIB. THERMAL CORRECTION E(T)-E(0) = H(T)-H(0) =      6244.898 J/MOL

              E         H         G         CV        CP        S
         KCAL/MOL  KCAL/MOL  KCAL/MOL CAL/MOL-K CAL/MOL-K CAL/MOL-K
 ELEC.      0.000     0.000    -0.411     0.000     0.000     1.377
 TRANS.     0.889     1.481   -10.703     2.981     4.968    40.866
 ROT.       0.889     0.889    -7.349     2.981     2.981    27.629
 VIB.      88.473    88.473    85.904    11.544    11.544     8.617
 TOTAL     90.250    90.843    67.441    17.506    19.493    78.489
 VIB. THERMAL CORRECTION E(T)-E(0) = H(T)-H(0) =      1492.567 CAL/MOL

     *******************************************************
     * THIS IS NOT A STATIONARY POINT ON THE MOLECULAR PES *
     *     THE VIBRATIONAL ANALYSIS IS NOT VALID !!!       *
     *******************************************************
 ......END OF NORMAL COORDINATE ANALYSIS......
 STEP CPU TIME =     0.00 TOTAL CPU TIME =         59.9 (      1.0 MIN)
 TOTAL WALL CLOCK TIME=         60.1 SECONDS, CPU UTILIZATION IS    99.65%
               998751  WORDS OF DYNAMIC MEMORY USED
 EXECUTION OF GAMESS TERMINATED NORMALLY Sat Nov 13 06:52:19 2021
 DDI: 263640 bytes (0.3 MB / 0 MWords) used by master data server.

 ----------------------------------------
 CPU timing information for all processes
 ========================================
 0: 59.60 + 0.843 = 59.903
 ----------------------------------------
 ddikick.x: exited gracefully.
----- accounting info -----
Files used on the master node chemcompute-node-0.novalocal were:
-rw-r--r--. 1 chemcomp chemcomp      1066 Nov 13 06:51 /scratch/305789/341667.F05
-rw-rw-r--. 1 chemcomp chemcomp   9000800 Nov 13 06:51 /scratch/305789/341667.F08
-rw-rw-r--. 1 chemcomp chemcomp 104857600 Nov 13 06:52 /scratch/305789/341667.F10
-rw-rw-r--. 1 chemcomp chemcomp    926688 Nov 13 06:52 /scratch/305789/341667.F18
Sat Nov 13 06:52:22 UTC 2021
0.130u 0.104s 1:03.66 0.3%	0+0k 8+216io 0pf+0w
Finishing Up...
Looking for IR data...
Exception parsing IR in output file
could not convert string to float: 'PROPERTY'
Looking for Raman data...
Exception parsing Raman in output file
could not convert string to float: 'PROPERTY'
Looking for thermodynamics data...
Looking for UV-Vis data...
Exception parsing uvvis in output file
could not convert string to float: 'PROPERTY'
305789
