----- GAMESS execution script 'rungms' -----
This job is running on host chemcompute-node-0.novalocal
under operating system Linux at Thu Nov 4 22:56:34 UTC 2021
SLURM has assigned the following compute nodes to this run:
chemcompute-node-0
Available scratch disk space (Kbyte units) at beginning of the job is
Filesystem     1K-blocks     Used Available Use% Mounted on
/dev/sda1       62903276 16793404  46109872  27% /
GAMESS temporary binary files will be written to /scratch/300976
GAMESS supplementary output files will be written to /data/slurm/335918
Copying input file 335918.inp to your run's scratch directory...
The generated host list is
chemcompute-node-0.novalocal

 Distributed Data Interface kickoff program.
 Initiating 1 compute processes on 1 nodes to run the following command:
 /data/gamess-2019R1-ddi/gamess.00.x 335918 

          ******************************************************
          *         GAMESS VERSION = 30 JUN 2019 (R1)          *
          *             FROM IOWA STATE UNIVERSITY             *
          * M.W.SCHMIDT, K.K.BALDRIDGE, J.A.BOATZ, S.T.ELBERT, *
          *   M.S.GORDON, J.H.JENSEN, S.KOSEKI, N.MATSUNAGA,   *
          *          K.A.NGUYEN, S.J.SU, T.L.WINDUS,           *
          *       TOGETHER WITH M.DUPUIS, J.A.MONTGOMERY       *
          *         J.COMPUT.CHEM.  14, 1347-1363(1993)        *
          **************** 64 BIT LINUX VERSION ****************

  SINCE 1993, STUDENTS AND POSTDOCS WORKING AT IOWA STATE UNIVERSITY
  AND ALSO IN THEIR VARIOUS JOBS AFTER LEAVING ISU HAVE MADE IMPORTANT
  CONTRIBUTIONS TO THE CODE:
     IVANA ADAMOVIC, CHRISTINE AIKENS, YURI ALEXEEV, POOJA ARORA,
     ANDREY ASADCHEV, ROB BELL, PRADIPTA BANDYOPADHYAY, JONATHAN BENTZ,
     COLLEEN BERTONI, BRETT BODE, KURT BRORSEN, CALEB CARLIN, GALINA CHABAN,
     WEI CHEN, CHEOL HO CHOI, PAUL DAY, ALBERT DEFUSCO, NUWAN DESILVA,
     TIM DUDLEY, DMITRI FEDOROV, ALEX FINDLATER, GRAHAM FLETCHER, 
     MARK FREITAG, KURT GLAESEMANN, ANASTASIA GUNINA,
     DAN KEMP, GRANT MERRILL, NORIYUKI MINEZAWA, JONATHAN MULLIN,
     TAKESHI NAGATA, SEAN NEDD, HEATHER NETZLOFF, BOSILJKA NJEGIC, RYAN OLSON,
     MIKE PAK, BUU PHAM,
     SPENCER PRUITT, LUKE ROSKOP, JIM SHOEMAKER, LYUDMILA SLIPCHENKO,
     TONY SMITH, SAROM SOK LEANG, JIE SONG, TETSUYA TAKETSUGU, SIMON WEBB,
     PENG XU, SOOHAENG YOO, FEDERICO ZAHARIEV

  ADDITIONAL CODE HAS BEEN PROVIDED BY COLLABORATORS IN OTHER GROUPS:
     IOWA STATE UNIVERSITY:
          JOE IVANIC, AARON WEST, LAIMUTIS BYTAUTAS, KLAUS RUEDENBERG
     UNIVERSITY OF TOKYO: KIMIHIKO HIRAO, TAKAHITO NAKAJIMA,
          TAKAO TSUNEDA, MUNEAKI KAMIYA, SUSUMU YANAGISAWA,
          KIYOSHI YAGI, MAHITO CHIBA, SEIKEN TOKURA, NAOAKI KAWAKAMI
     UNIVERSITY OF AARHUS: FRANK JENSEN
     UNIVERSITY OF IOWA: VISVALDAS KAIRYS, HUI LI
     NATIONAL INST. OF STANDARDS AND TECHNOLOGY: WALT STEVENS, DAVID GARMER
     UNIVERSITY OF PISA: BENEDETTA MENNUCCI, JACOPO TOMASI
     UNIVERSITY OF MEMPHIS: HENRY KURTZ, PRAKASHAN KORAMBATH
     UNIVERSITY OF ALBERTA: TOBY ZENG, MARIUSZ KLOBUKOWSKI
     UNIVERSITY OF NEW ENGLAND: MARK SPACKMAN
     MIE UNIVERSITY: HIROAKI UMEDA
     NAT. INST. OF ADVANCED INDUSTRIAL SCIENCE AND TECHNOLOGY: KAZUO KITAURA
     MICHIGAN STATE UNIVERSITY:
          KAROL KOWALSKI, MARTA WLOCH, JEFFREY GOUR, JESSE LUTZ,
          WEI LI, JUN SHEN, J. EMILIANO DEUSTUA, PIOTR PIECUCH
     UNIVERSITY OF MINNESOTA:
          YINAN SHU
     UNIVERSITY OF SILESIA: MONIKA MUSIAL, STANISLAW KUCHARSKI
     FACULTES UNIVERSITAIRES NOTRE-DAME DE LA PAIX:
          OLIVIER QUINET, BENOIT CHAMPAGNE
     UNIVERSITY OF CALIFORNIA - SANTA BARBARA: BERNARD KIRTMAN
     INSTITUTE FOR MOLECULAR SCIENCE:
          KAZUYA ISHIMURA, MICHIO KATOUDA, AND SHIGERU NAGASE
     UNIVERSITY OF NOTRE DAME: ANNA POMOGAEVA, DAN CHIPMAN
     KYUSHU UNIVERSITY:
          HARUYUKI NAKANO,
          FENG LONG GU, JACEK KORCHOWIEC, MARCIN MAKOWSKI, AND YURIKO AOKI,
          HIROTOSHI MORI AND EISAKU MIYOSHI
     PENNSYLVANIA STATE UNIVERSITY:
          TZVETELIN IORDANOV, CHET SWALINA, JONATHAN SKONE,
          SHARON HAMMES-SCHIFFER
     WASEDA UNIVERSITY:
          MASATO KOBAYASHI, TOMOKO AKAMA, TSUGUKI TOUMA,
          TAKESHI YOSHIKAWA, YASUHIRO IKABATA, JUNJI SEINO,
          YUYA NAKAJIMA, HIROMI NAKAI
     NANJING UNIVERSITY: SHUHUA LI
     UNIVERSITY OF NEBRASKA:
          PEIFENG SU, DEJUN SI, NANDUN THELLAMUREGE, YALI WANG, HUI LI
     UNIVERSITY OF ZURICH: ROBERTO PEVERATI, KIM BALDRIDGE
     N. COPERNICUS UNIVERSITY AND JACKSON STATE UNIVERSITY:
          MARIA BARYSZ
     UNIVERSITY OF COPENHAGEN: Jimmy Kromann, CASPER STEINMANN
     TOKYO INSTITUTE OF TECHNOLOGY: HIROYA NAKATA
     NAGOYA UNIVERSITY: YOSHIO NISHIMOTO, STEPHAN IRLE
     MOSCOW STATE UNIVERSITY: VLADIMIR MIRONOV
     A.N.NESMEYANOV INSTITUTE OF ORGANOELEMENT COMPOUNDS OF RUSSIAN ACADEMY OF SCIENCES:
          IGOR S. GERASIMOV

 EXECUTION OF GAMESS BEGUN Thu Nov  4 22:56:35 2021

            ECHO OF THE FIRST FEW INPUT CARDS -
 INPUT CARD>!File created by the GAMESS Input Deck Generator Plugin for Avogadro            
 INPUT CARD> $BASIS GBASIS=STO NGAUSS=3 $END                                                
 INPUT CARD> $CONTRL SCFTYP=RHF RUNTYP=OPTIMIZE NZVAR=1 mult=1  ICHARG=0 $END               
 INPUT CARD> $STATPT hssend=.t. OPTTOL=0.0005 NSTEP=50 $END                                 
 INPUT CARD> $STATPT HESS=calc ihrep=5 $END                                                 
 INPUT CARD> $FORCE NVIB=2 $END                                                             
 INPUT CARD> $ZMAT DLC=.t. auto=.t. nonvdw(1)=1,6,3,4 $END                                  
 INPUT CARD> $ZMAT IFZMAT(1)=1,1,6,1,4,3 fvalue(1)=2.0,2.0 $END                             
 INPUT CARD>                                                                                
 INPUT CARD> $DATA                                                                          
 INPUT CARD>Title                                                                           
 INPUT CARD>C1                                                                              
 INPUT CARD>C     6.0     5.17888    -1.96535     1.97296                                   
 INPUT CARD>C     6.0     3.90067    -1.51465     1.89402                                   
 INPUT CARD>C     6.0     3.28160    -1.25482     0.54760                                   
 INPUT CARD>C     6.0     4.53043     0.00235    -0.37616                                   
 INPUT CARD>C     6.0     5.54204     0.33573     0.68544                                   
 INPUT CARD>C     6.0     6.38839    -0.66928     1.04144                                   
 INPUT CARD>C     6.0     6.98176    -1.41851    -0.09260                                   
 INPUT CARD>C     6.0     6.40096    -1.50218    -1.29853                                   
 INPUT CARD>C     6.0     5.10240    -0.81487    -1.52051                                   
 INPUT CARD>O     8.0     4.51428    -0.95931    -2.59041                                   
 INPUT CARD>H     1.0     5.63134    -2.05409     2.96403                                   
 INPUT CARD>H     1.0     5.47017    -2.71356     1.22735                                   
 INPUT CARD>H     1.0     3.44288    -1.03602     2.75622                                   
 INPUT CARD>H     1.0     3.19468    -2.12971    -0.10165                                   
 INPUT CARD>H     1.0     2.35182    -0.68314     0.61264                                   
 INPUT CARD>H     1.0     3.92035     0.84215    -0.71585                                   
 INPUT CARD>H     1.0     5.32265     1.14291     1.37740                                   
 INPUT CARD>H     1.0     7.05349    -0.50966     1.89783                                   
 INPUT CARD>H     1.0     7.93793    -1.90150     0.09192                                   
 INPUT CARD>H     1.0     6.82590    -2.04917    -2.12906                                   
 INPUT CARD> $END                                                                           
    1000000 WORDS OF MEMORY AVAILABLE

     BASIS OPTIONS
     -------------
     GBASIS=STO          IGAUSS=       3      POLAR=NONE    
     NDFUNC=       0     NFFUNC=       0     DIFFSP=       F
     NPFUNC=       0      DIFFS=       F     BASNAM=        


     RUN TITLE
     ---------
 Title                                                                           

 THE POINT GROUP OF THE MOLECULE IS C1      
 THE ORDER OF THE PRINCIPAL AXIS IS     0

 ATOM      ATOMIC                      COORDINATES (BOHR)
           CHARGE         X                   Y                   Z
 C           6.0     9.7866641233       -3.7139729700        3.7283537847
 C           6.0     7.3711974685       -2.8622734673        3.5791788153
 C           6.0     6.2013248013       -2.3712659639        1.0348139509
 C           6.0     8.5612713066        0.0044408561       -0.7108393275
 C           6.0    10.4729370130        0.6344377059        1.2952937810
 C           6.0    12.0723066027       -1.2647558091        1.9680362327
 C           6.0    13.1936133120       -2.6805952108       -0.1749886265
 C           6.0    12.0960604584       -2.8387085842       -2.4538658868
 C           6.0     9.6421378798       -1.5398810156       -2.8733472616
 O           8.0     8.5307522319       -1.8128330373       -4.8951650959
 H           1.0    10.6416895437       -3.8816672541        5.6012045194
 H           1.0    10.3371224063       -5.1278848512        2.3193551910
 H           1.0     6.5060998086       -1.9577939178        5.2085005619
 H           1.0     6.0370698185       -4.0245683333       -0.1920906467
 H           1.0     4.4442953724       -1.2909474113        1.1577217291
 H           1.0     7.4083872760        1.5914327406       -1.3527603483
 H           1.0    10.0583500285        2.1597867286        2.6029085755
 H           1.0    13.3291633571       -0.9631177469        3.5863786713
 H           1.0    15.0005126097       -3.5933139657        0.1737036128
 H           1.0    12.8990806196       -3.8723698023       -4.0233400114

          INTERNUCLEAR DISTANCES (ANGS.)
          ------------------------------

                1 C          2 C          3 C          4 C          5 C     

   1 C       0.0000000    1.3576387 *  2.4771305 *  3.1322030    2.6616841 *
   2 C       1.3576387 *  0.0000000    1.5045285 *  2.8020714 *  2.7529379 *
   3 C       2.4771305 *  1.5045285 *  0.0000000    1.9983456 *  2.7673883 *
   4 C       3.1322030    2.8020714 *  1.9983456 *  0.0000000    1.5038256 *
   5 C       2.6616841 *  2.7529379 *  2.7673883 *  1.5038256 *  0.0000000  
   6 C       2.0026086 *  2.7622987 *  3.1998249    2.4316028 *  1.3612823 *
   7 C       2.7957018 *  3.6672902    3.7587012    2.8475021 *  2.3990619 *
   8 C       3.5228756    4.0551179    3.6331515    2.5716258 *  2.8375683 *
   9 C       3.6788294    3.6868499    2.7903311 *  1.5180695 *  2.5265350 *
  10 O       4.7199741    4.5601570    3.3843660    2.4141155 *  3.6694158  
  11 H       1.0930757 *  2.1050263 *  3.4639926    4.0740419    3.3032085  
  12 H       1.0957200 *  2.0845058 *  2.7165826 *  3.2909760    3.0979027  
  13 H       2.1191617 *  1.0872199 *  2.2252836 *  3.4745909    3.2521225  
  14 H       2.8754253 *  2.2044091 *  1.0929379 *  2.5308622 *  3.4939954  
  15 H       3.3892184    2.1753804 *  1.0934071 *  2.4887675 *  3.3497611  
  16 H       4.0860315    3.5165772    2.5301365 *  1.0921772 *  2.2022610 *
  17 H       3.1680659    3.0580302    3.2563111    2.2368420 *  1.0855783 *
  18 H       2.3746243 *  3.3091227    4.0749894    3.4349697    2.1140139 *
  19 H       3.3398720    4.4380948    4.7230550    3.9312593    3.3313290  
  20 H       4.4211162    5.0027847    4.5119356    3.5426791    3.9060792  

                6 C          7 C          8 C          9 C         10 O     

   1 C       2.0026086 *  2.7957018 *  3.5228756    3.6788294    4.7199741  
   2 C       2.7622987 *  3.6672902    4.0551179    3.6868499    4.5601570  
   3 C       3.1998249    3.7587012    3.6331515    2.7903311 *  3.3843660  
   4 C       2.4316028 *  2.8475021 *  2.5716258 *  1.5180695 *  2.4141155 *
   5 C       1.3612823 *  2.3990619 *  2.8375683 *  2.5265350 *  3.6694158  
   6 C       0.0000000    1.4830645 *  2.4838156 *  2.8702882 *  4.0971624  
   7 C       1.4830645 *  0.0000000    1.3411176 *  2.4362476 *  3.5409571  
   8 C       2.4838156 *  1.3411176 *  0.0000000    1.4859099 *  2.3501539 *
   9 C       2.8702882 *  2.4362476 *  1.4859099 *  0.0000000    1.2294039 *
  10 O       4.0971624    3.5409571    2.3501539 *  1.2294039 *  0.0000000  
  11 H       2.4874034 *  3.4015560    4.3665017    4.6825786    5.7704567  
  12 H       2.2487266 *  2.3883733 *  2.9519284 *  3.3602103    4.3088757  
  13 H       3.4279728    4.5591387    5.0406884    4.5927479    5.4534608  
  14 H       3.6931415    3.8532924    3.4794464    2.7168665 *  3.0504273  
  15 H       4.0593052    4.7407254    4.5518054    3.4832990    3.8745364  
  16 H       3.3858101    3.8563267    3.4624883    2.1887063 *  2.6668307 *
  17 H       2.1290147 *  3.3873911    3.9140586    3.5041825    4.5624891  
  18 H       1.0960111 *  2.1892842 *  3.4099279    3.9477783    5.1762990  
  19 H       2.1956841 *  1.0870088 *  2.1107071 *  3.4381573    4.4501680  
  20 H       3.4853381    2.1375672 *  1.0814583 *  2.2055117 *  2.5969647 *

               11 H         12 H         13 H         14 H         15 H     

   1 C       1.0930757 *  1.0957200 *  2.1191617 *  2.8754253 *  3.3892184  
   2 C       2.1050263 *  2.0845058 *  1.0872199 *  2.2044091 *  2.1753804 *
   3 C       3.4639926    2.7165826 *  2.2252836 *  1.0929379 *  1.0934071 *
   4 C       4.0740419    3.2909760    3.4745909    2.5308622 *  2.4887675 *
   5 C       3.3032085    3.0979027    3.2521225    3.4939954    3.3497611  
   6 C       2.4874034 *  2.2487266 *  3.4279728    3.6931415    4.0593052  
   7 C       3.4015560    2.3883733 *  4.5591387    3.8532924    4.7407254  
   8 C       4.3665017    2.9519284 *  5.0406884    3.4794464    4.5518054  
   9 C       4.6825786    3.3602103    4.5927479    2.7168665 *  3.4832990  
  10 O       5.7704567    4.3088757    5.4534608    3.0504273    3.8745364  
  11 H       0.0000000    1.8646538 *  2.4226037 *  3.9168130    4.2618998  
  12 H       1.8646538 *  0.0000000    3.0432694    2.6990696 *  3.7715488  
  13 H       2.4226037 *  3.0432694    0.0000000    3.0700459    2.4310227 *
  14 H       3.9168130    2.6990696 *  3.0700459    0.0000000    1.8202165 *
  15 H       4.2618998    3.7715488    2.4310227 *  1.8202165 *  0.0000000  
  16 H       4.9857005    4.3383225    3.9762759    3.1202228    2.5596253 *
  17 H       3.5823865    3.8622064    3.1909898    4.1744325    3.5700346  
  18 H       2.3546883 *  2.7952855 *  3.7483854    4.6381997    4.8772440  
  19 H       3.6868221    2.8352217 *  5.2965106    4.7526803    5.7410953  
  20 H       5.2313061    3.6803405    6.0280393    4.1596438    5.4222088  

               16 H         17 H         18 H         19 H         20 H     

   1 C       4.0860315    3.1680659    2.3746243 *  3.3398720    4.4211162  
   2 C       3.5165772    3.0580302    3.3091227    4.4380948    5.0027847  
   3 C       2.5301365 *  3.2563111    4.0749894    4.7230550    4.5119356  
   4 C       1.0921772 *  2.2368420 *  3.4349697    3.9312593    3.5426791  
   5 C       2.2022610 *  1.0855783 *  2.1140139 *  3.3313290    3.9060792  
   6 C       3.3858101    2.1290147 *  1.0960111 *  2.1956841 *  3.4853381  
   7 C       3.8563267    3.3873911    2.1892842 *  1.0870088 *  2.1375672 *
   8 C       3.4624883    3.9140586    3.4099279    2.1107071 *  1.0814583 *
   9 C       2.1887063 *  3.5041825    3.9477783    3.4381573    2.2055117 *
  10 O       2.6668307 *  4.5624891    5.1762990    4.4501680    2.5969647 *
  11 H       4.9857005    3.5823865    2.3546883 *  3.6868221    5.2313061  
  12 H       4.3383225    3.8622064    2.7952855 *  2.8352217 *  3.6803405  
  13 H       3.9762759    3.1909898    3.7483854    5.2965106    6.0280393  
  14 H       3.1202228    4.1744325    4.6381997    4.7526803    4.1596438  
  15 H       2.5596253 *  3.5700346    4.8772440    5.7410953    5.4222088  
  16 H       0.0000000    2.5374391 *  4.2982880    4.9316383    4.3357946  
  17 H       2.5374391 *  0.0000000    2.4490084 *  4.2143304    4.9743740  
  18 H       4.2982880    2.4490084 *  0.0000000    2.4455600 *  4.3171439  
  19 H       4.9316383    4.2143304    2.4455600 *  0.0000000    2.4882060 *
  20 H       4.3357946    4.9743740    4.3171439    2.4882060 *  0.0000000  

  * ... LESS THAN  3.000


     ATOMIC BASIS SET
     ----------------
 THE CONTRACTED PRIMITIVE FUNCTIONS HAVE BEEN UNNORMALIZED
 THE CONTRACTED BASIS FUNCTIONS ARE NOW NORMALIZED TO UNITY

  SHELL TYPE  PRIMITIVE        EXPONENT          CONTRACTION COEFFICIENT(S)

 C         

      1   S       1            71.6168373    0.154328967295
      1   S       2            13.0450963    0.535328142282
      1   S       3             3.5305122    0.444634542185

      2   L       4             2.9412494   -0.099967229187    0.155916274999
      2   L       5             0.6834831    0.399512826089    0.607683718598
      2   L       6             0.2222899    0.700115468880    0.391957393099

 C         

      3   S       7            71.6168373    0.154328967295
      3   S       8            13.0450963    0.535328142282
      3   S       9             3.5305122    0.444634542185

      4   L      10             2.9412494   -0.099967229187    0.155916274999
      4   L      11             0.6834831    0.399512826089    0.607683718598
      4   L      12             0.2222899    0.700115468880    0.391957393099

 C         

      5   S      13            71.6168373    0.154328967295
      5   S      14            13.0450963    0.535328142282
      5   S      15             3.5305122    0.444634542185

      6   L      16             2.9412494   -0.099967229187    0.155916274999
      6   L      17             0.6834831    0.399512826089    0.607683718598
      6   L      18             0.2222899    0.700115468880    0.391957393099

 C         

      7   S      19            71.6168373    0.154328967295
      7   S      20            13.0450963    0.535328142282
      7   S      21             3.5305122    0.444634542185

      8   L      22             2.9412494   -0.099967229187    0.155916274999
      8   L      23             0.6834831    0.399512826089    0.607683718598
      8   L      24             0.2222899    0.700115468880    0.391957393099

 C         

      9   S      25            71.6168373    0.154328967295
      9   S      26            13.0450963    0.535328142282
      9   S      27             3.5305122    0.444634542185

     10   L      28             2.9412494   -0.099967229187    0.155916274999
     10   L      29             0.6834831    0.399512826089    0.607683718598
     10   L      30             0.2222899    0.700115468880    0.391957393099

 C         

     11   S      31            71.6168373    0.154328967295
     11   S      32            13.0450963    0.535328142282
     11   S      33             3.5305122    0.444634542185

     12   L      34             2.9412494   -0.099967229187    0.155916274999
     12   L      35             0.6834831    0.399512826089    0.607683718598
     12   L      36             0.2222899    0.700115468880    0.391957393099

 C         

     13   S      37            71.6168373    0.154328967295
     13   S      38            13.0450963    0.535328142282
     13   S      39             3.5305122    0.444634542185

     14   L      40             2.9412494   -0.099967229187    0.155916274999
     14   L      41             0.6834831    0.399512826089    0.607683718598
     14   L      42             0.2222899    0.700115468880    0.391957393099

 C         

     15   S      43            71.6168373    0.154328967295
     15   S      44            13.0450963    0.535328142282
     15   S      45             3.5305122    0.444634542185

     16   L      46             2.9412494   -0.099967229187    0.155916274999
     16   L      47             0.6834831    0.399512826089    0.607683718598
     16   L      48             0.2222899    0.700115468880    0.391957393099

 C         

     17   S      49            71.6168373    0.154328967295
     17   S      50            13.0450963    0.535328142282
     17   S      51             3.5305122    0.444634542185

     18   L      52             2.9412494   -0.099967229187    0.155916274999
     18   L      53             0.6834831    0.399512826089    0.607683718598
     18   L      54             0.2222899    0.700115468880    0.391957393099

 O         

     19   S      55           130.7093214    0.154328967295
     19   S      56            23.8088661    0.535328142282
     19   S      57             6.4436083    0.444634542185

     20   L      58             5.0331513   -0.099967229187    0.155916274999
     20   L      59             1.1695961    0.399512826089    0.607683718598
     20   L      60             0.3803890    0.700115468880    0.391957393099

 H         

     21   S      61             3.4252509    0.154328967295
     21   S      62             0.6239137    0.535328142282
     21   S      63             0.1688554    0.444634542185

 H         

     22   S      64             3.4252509    0.154328967295
     22   S      65             0.6239137    0.535328142282
     22   S      66             0.1688554    0.444634542185

 H         

     23   S      67             3.4252509    0.154328967295
     23   S      68             0.6239137    0.535328142282
     23   S      69             0.1688554    0.444634542185

 H         

     24   S      70             3.4252509    0.154328967295
     24   S      71             0.6239137    0.535328142282
     24   S      72             0.1688554    0.444634542185

 H         

     25   S      73             3.4252509    0.154328967295
     25   S      74             0.6239137    0.535328142282
     25   S      75             0.1688554    0.444634542185

 H         

     26   S      76             3.4252509    0.154328967295
     26   S      77             0.6239137    0.535328142282
     26   S      78             0.1688554    0.444634542185

 H         

     27   S      79             3.4252509    0.154328967295
     27   S      80             0.6239137    0.535328142282
     27   S      81             0.1688554    0.444634542185

 H         

     28   S      82             3.4252509    0.154328967295
     28   S      83             0.6239137    0.535328142282
     28   S      84             0.1688554    0.444634542185

 H         

     29   S      85             3.4252509    0.154328967295
     29   S      86             0.6239137    0.535328142282
     29   S      87             0.1688554    0.444634542185

 H         

     30   S      88             3.4252509    0.154328967295
     30   S      89             0.6239137    0.535328142282
     30   S      90             0.1688554    0.444634542185

 TOTAL NUMBER OF BASIS SET SHELLS             =   30
 NUMBER OF CARTESIAN GAUSSIAN BASIS FUNCTIONS =   60
 NUMBER OF ELECTRONS                          =   72
 CHARGE OF MOLECULE                           =    0
 SPIN MULTIPLICITY                            =    1
 NUMBER OF OCCUPIED ORBITALS (ALPHA)          =   36
 NUMBER OF OCCUPIED ORBITALS (BETA )          =   36
 TOTAL NUMBER OF ATOMS                        =   20
 THE NUCLEAR REPULSION ENERGY IS      505.2344803283

     $CONTRL OPTIONS
     ---------------
 SCFTYP=RHF          RUNTYP=OPTIMIZE     EXETYP=RUN     
 MPLEVL=       0     CITYP =NONE         CCTYP =NONE         VBTYP =NONE    
 DFTTYP=NONE         TDDFT =NONE    
 MULT  =       1     ICHARG=       0     NZVAR =       1     COORD =UNIQUE  
 PP    =NONE         RELWFN=NONE         LOCAL =NONE         NUMGRD=       F
 ISPHER=      -1     NOSYM =       0     MAXIT =      30     UNITS =ANGS    
 PLTORB=       F     MOLPLT=       F     AIMPAC=       F     FRIEND=        
 NPRINT=       7     IREST =       0     GEOM  =INPUT   
 NORMF =       0     NORMP =       0     ITOL  =      20     ICUT  =       9
 INTTYP=BEST         GRDTYP=BEST         QMTTOL= 1.0E-06

     $SYSTEM OPTIONS
     ---------------
  REPLICATED MEMORY=     1000000 WORDS (ON EVERY NODE).
 DISTRIBUTED MEMDDI=           0 MILLION WORDS IN AGGREGATE,
 MEMDDI DISTRIBUTED OVER   1 PROCESSORS IS           0 WORDS/PROCESSOR.
 TOTAL MEMORY REQUESTED ON EACH PROCESSOR=     1000000 WORDS.
 TIMLIM=      525600.00 MINUTES, OR     365.0 DAYS.
 PARALL= F  BALTYP=  DLB     KDIAG=    0  COREFL= F
 MXSEQ2=     300 MXSEQ3=     150  mem10=         0

          ----------------
          PROPERTIES INPUT
          ----------------

     MOMENTS            FIELD           POTENTIAL          DENSITY
 IEMOM =       1   IEFLD =       0   IEPOT =       0   IEDEN =       0
 WHERE =COMASS     WHERE =NUCLEI     WHERE =NUCLEI     WHERE =NUCLEI  
 OUTPUT=BOTH       OUTPUT=BOTH       OUTPUT=BOTH       OUTPUT=BOTH    
 IEMINT=       0   IEFINT=       0                     IEDINT=       0
                                                       MORB  =       0
          EXTRAPOLATION IN EFFECT
          SOSCF IN EFFECT
 ORBITAL PRINTING OPTION: NPREO=     1    60     2     1

     -------------------------------
     INTEGRAL TRANSFORMATION OPTIONS
     -------------------------------
     NWORD  =            0
     CUTOFF = 1.0E-09     MPTRAN =       0
     DIRTRF =       F     AOINTS =DUP     

          ----------------------
          INTEGRAL INPUT OPTIONS
          ----------------------
 NOPK  =       1 NORDER=       0 SCHWRZ=       T


 -----------------------------------------------
  STATISTICS ON AUTOMATIC COORDINATE GENERATION 
 -----------------------------------------------
  NUMBER OF USER SPECIFIED BONDS                             2
  NUMBER OF BONDS                                           21
  NUMBER OF ANGLES                                          39
  NUMBER OF TORSIONS                                        62
  NUMBER OF EXTRA COORD.                                     0
  NUMBER OF EXTRA COORD. FOR CONSTRAINTS                     0
  NUMBER OF CONSTRAINED COORD.                               2

  TOTAL NUMBER OF PRIMITIVES                               122
 -----------------------------------------------

   --- ENCODED Z MATRIX ---
 COORD  TYPE   I   J   K   L   M   N
    1      1    1   6
    2      1    3   4
    3      1    1   2
    4      1    1  12
    5      1    1  11
    6      1    2  13
    7      1    2   3
    8      1    3  14
    9      1    3  15
   10      1    4   9
   11      1    4   5
   12      1    4  16
   13      1    5   6
   14      1    5  17
   15      1    6   7
   16      1    6  18
   17      1    7   8
   18      1    7  19
   19      1    8  20
   20      1    8   9
   21      1    9  10
   22      2    1   2  13
   23      2    1   6   7
   24      2    1   6   5
   25      2    1   6  18
   26      2    1   2   3
   27      2    2   1  12
   28      2    2   1  11
   29      2    2   3  15
   30      2    2   3   4
   31      2    2   1   6
   32      2    2   3  14
   33      2    3   2  13
   34      2    3   4  16
   35      2    3   4   5
   36      2    3   4   9
   37      2    4   5  17
   38      2    4   5   6
   39      2    4   9  10
   40      2    4   9   8
   41      2    4   3  15
   42      2    4   3  14
   43      2    5   6   7
   44      2    5   4  16
   45      2    5   4   9
   46      2    5   6  18
   47      2    6   5  17
   48      2    6   1  12
   49      2    6   1  11
   50      2    6   7  19
   51      2    6   7   8
   52      2    7   8  20
   53      2    7   8   9
   54      2    7   6  18
   55      2    8   9  10
   56      2    8   7  19
   57      2    9   4  16
   58      2    9   8  20
   59      2   11   1  12
   60      2   14   3  15
   61      3    1   6   5  17
   62      3    1   6   5   4
   63      3    1   2   3  15
   64      3    1   2   3   4
   65      3    1   2   3  14
   66      3    1   6   7   8
   67      3    1   6   7  19
   68      3    2   3   4   9
   69      3    2   1   6  18
   70      3    2   1   6   5
   71      3    2   1   6   7
   72      3    2   3   4  16
   73      3    2   3   4   5
   74      3    3   4   9  10
   75      3    3   4   9   8
   76      3    3   4   5  17
   77      3    3   4   5   6
   78      3    3   2   1  11
   79      3    3   2   1   6
   80      3    3   2   1  12
   81      3    4   3   2  13
   82      3    4   9   8  20
   83      3    4   9   8   7
   84      3    4   5   6  18
   85      3    4   5   6   7
   86      3    5   4   3  15
   87      3    5   4   3  14
   88      3    5   6   1  11
   89      3    5   6   7  19
   90      3    5   6   7   8
   91      3    5   6   1  12
   92      3    5   4   9   8
   93      3    5   4   9  10
   94      3    6   5   4  16
   95      3    6   5   4   9
   96      3    6   7   8   9
   97      3    6   7   8  20
   98      3    6   1   2  13
   99      3    7   8   9  10
  100      3    7   6   1  11
  101      3    7   6   1  12
  102      3    7   6   5  17
  103      3    8   7   6  18
  104      3    8   9   4  16
  105      3    9   4   5  17
  106      3    9   8   7  19
  107      3    9   4   3  15
  108      3    9   4   3  14
  109      3   10   9   8  20
  110      3   10   9   4  16
  111      3   11   1   2  13
  112      3   11   1   6  18
  113      3   12   1   6  18
  114      3   12   1   2  13
  115      3   13   2   3  15
  116      3   13   2   3  14
  117      3   14   3   4  16
  118      3   15   3   4  16
  119      3   16   4   5  17
  120      3   17   5   6  18
  121      3   18   6   7  19
  122      3   19   7   8  20

          INDEP./SYM. INTERNAL COORDINATES
          --------------------------------
 CRD  1=   1.0000 (  1)
 CRD  2=   1.0000 (  2)
 CRD  3=   0.1195 (  5) -0.1220 (  9) -0.2783 ( 10)  0.2864 ( 15)  0.2371 ( 17)
          -0.1641 ( 20)  0.1227 ( 24) -0.1382 ( 25)  0.1491 ( 30) -0.1275 ( 31)
           0.1465 ( 34) -0.1378 ( 35) -0.1412 ( 39) -0.1340 ( 41) -0.1582 ( 43)
           0.1647 ( 45)  0.1549 ( 49)  0.1777 ( 52)  0.1509 ( 54)  0.1323 ( 55)
          -0.1474 ( 57) -0.1810 ( 58) -0.1128 ( 61) -0.1115 ( 62)  0.1813 ( 68)
           0.1599 ( 71) -0.1136 ( 76) -0.1074 ( 77) -0.1038 ( 79)  0.1268 (100)
           0.1310 (101)  0.1337 (107)  0.1158 (108)
 CRD  4=  -0.1927 (  3)  0.1176 (  6) -0.1654 (  7)  0.1563 ( 10)  0.1219 ( 15)
          -0.1868 ( 17) -0.2359 ( 20)  0.1645 ( 22) -0.3502 ( 26) -0.1095 ( 29)
           0.2405 ( 30)  0.2264 ( 31)  0.1848 ( 33)  0.1275 ( 37) -0.2224 ( 38)
           0.1343 ( 39) -0.1325 ( 42) -0.1293 ( 48)  0.1271 ( 51) -0.2104 ( 55)
          -0.1617 ( 56)  0.1002 ( 81) -0.1051 ( 98) -0.1135 (101)
 CRD  5=   0.2209 (  3) -0.1502 (  7) -0.1171 (  8) -0.1208 ( 11)  0.1586 ( 13)
           0.1219 ( 25) -0.1316 ( 28)  0.1102 ( 29) -0.1034 ( 34) -0.1336 ( 41)
          -0.1161 ( 42)  0.1156 ( 47)  0.1086 ( 48)  0.2043 ( 49)  0.1316 ( 63)
          -0.1774 ( 66) -0.1446 ( 67) -0.1533 ( 74) -0.1921 ( 75)  0.1757 ( 78)
           0.1302 ( 82)  0.1398 ( 83)  0.1122 ( 85) -0.1789 ( 89) -0.2117 ( 90)
          -0.2034 ( 92) -0.1646 ( 93)  0.1068 ( 97)  0.1042 ( 99)  0.1771 (111)
           0.1583 (115) -0.1053 (119) -0.1100 (120)
 CRD  6=  -0.2904 (  3) -0.1425 (  5) -0.3333 (  7) -0.1510 (  9) -0.2905 ( 10)
          -0.1231 ( 11) -0.1060 ( 12) -0.1196 ( 13) -0.2599 ( 15) -0.1344 ( 17)
          -0.1951 ( 39) -0.1822 ( 41)  0.1490 ( 42)  0.1750 ( 48) -0.1585 ( 49)
          -0.1295 ( 50)  0.1752 ( 55) -0.1811 ( 64)  0.1812 ( 79) -0.1746 ( 81)
           0.1844 ( 98)
 CRD  7=  -0.1213 (  3) -0.1151 ( 11)  0.1939 ( 17)  0.2027 ( 19)  0.4311 ( 20)
          -0.1348 ( 28) -0.1196 ( 29) -0.3814 ( 39)  0.1338 ( 41) -0.1173 ( 48)
          -0.1644 ( 50) -0.1825 ( 53)  0.3595 ( 55)  0.1294 ( 56)  0.2560 ( 58)
           0.1079 ( 64) -0.1032 ( 98)
 CRD  8=   0.1323 ( 10)  0.2496 ( 11) -0.3092 ( 13) -0.2246 ( 15)  0.1408 ( 17)
          -0.1314 ( 18)  0.1887 ( 21)  0.1572 ( 22) -0.1455 ( 33)  0.3243 ( 37)
           0.1098 ( 39) -0.1716 ( 40) -0.1049 ( 42) -0.3477 ( 47) -0.2754 ( 50)
           0.1426 ( 51)  0.1327 ( 56)  0.1144 ( 68) -0.1174 ( 89) -0.1079 ( 90)
           0.1351 (102)
 CRD  9=   0.1486 (  3)  0.1656 (  7)  0.1090 (  8) -0.3105 ( 10)  0.1209 ( 13)
          -0.2929 ( 15) -0.2251 ( 17) -0.2135 ( 19) -0.1008 ( 20)  0.1182 ( 24)
          -0.1067 ( 32)  0.1354 ( 34)  0.1065 ( 41)  0.1211 ( 42)  0.1054 ( 48)
          -0.1300 ( 52)  0.1225 ( 53)  0.1277 ( 55)  0.1527 ( 61)  0.1341 ( 62)
          -0.1222 ( 63) -0.1820 ( 76) -0.1521 ( 77) -0.1060 ( 80)  0.1279 ( 85)
           0.1293 ( 93) -0.1552 ( 95)  0.1464 (102) -0.1851 (105) -0.1334 (114)
           0.1257 (116)
 CRD 10=   0.1020 (  3)  0.1153 (  7) -0.3347 ( 17) -0.1244 ( 18)  0.1880 ( 20)
           0.1257 ( 28)  0.2440 ( 50)  0.1238 ( 51) -0.4088 ( 52)  0.1750 ( 55)
          -0.3678 ( 56)  0.4049 ( 58) -0.1032 ( 62)
 CRD 11=   0.1704 (  6)  0.4761 (  7)  0.1006 (  8)  0.2013 ( 11)  0.1109 ( 14)
           0.1198 ( 19) -0.2280 ( 22) -0.1317 ( 26)  0.2179 ( 29)  0.3564 ( 33)
           0.1241 ( 37) -0.1655 ( 39) -0.1776 ( 41) -0.1664 ( 50)  0.1145 ( 52)
          -0.1264 ( 53)  0.1270 ( 63)  0.1369 ( 86)  0.1787 (107)
 CRD 12=  -0.2362 (  3) -0.1199 (  4)  0.1271 (  7) -0.1822 ( 10) -0.2139 ( 11)
          -0.1201 ( 12) -0.2944 ( 13) -0.2982 ( 14) -0.1074 ( 15) -0.1654 ( 17)
          -0.1821 ( 19) -0.1052 ( 20) -0.2183 ( 22) -0.1684 ( 28)  0.1133 ( 31)
           0.1521 ( 32)  0.2416 ( 33)  0.1596 ( 38) -0.2037 ( 42) -0.1201 ( 47)
          -0.2067 ( 48)  0.1120 ( 49)  0.1411 ( 50)  0.1118 ( 53)  0.1073 ( 63)
           0.1331 ( 64) -0.1228 ( 79) -0.1415 ( 98) -0.1055 (116)
 CRD 13=   0.4019 (  3)  0.2101 (  6) -0.1096 (  8) -0.1887 ( 11) -0.1497 ( 14)
          -0.1828 ( 15)  0.3053 ( 22) -0.1583 ( 26)  0.1487 ( 28) -0.1605 ( 33)
          -0.1490 ( 37) -0.1860 ( 42)  0.1145 ( 46)  0.1056 ( 47) -0.1744 ( 48)
          -0.1570 ( 49) -0.1725 ( 50)  0.1383 ( 56) -0.1913 ( 78)  0.1048 ( 81)
          -0.1374 ( 88) -0.1371 (100) -0.1156 (111)  0.1381 (114)
 CRD 14=  -0.3139 ( 11) -0.1385 ( 12) -0.2909 ( 13) -0.1737 ( 16) -0.1241 ( 17)
          -0.2269 ( 18)  0.2163 ( 19) -0.1556 ( 20) -0.2228 ( 21)  0.1331 ( 24)
          -0.1158 ( 30) -0.1193 ( 31)  0.1293 ( 35)  0.1602 ( 40) -0.1512 ( 44)
          -0.1470 ( 46)  0.1122 ( 48)  0.1697 ( 51)  0.1530 ( 52) -0.3099 ( 53)
          -0.1234 ( 55)  0.1570 ( 58)
 CRD 15=   0.1468 (  3)  0.1190 (  4) -0.1265 (  7)  0.1358 (  9) -0.1350 ( 10)
           0.1777 ( 11) -0.1984 ( 12) -0.2109 ( 13)  0.1482 ( 15)  0.1538 ( 16)
          -0.1062 ( 20)  0.1827 ( 27) -0.1994 ( 32) -0.1083 ( 39)  0.1401 ( 42)
          -0.1757 ( 48)  0.1170 ( 50)  0.1503 ( 54)  0.1421 ( 55) -0.1719 ( 56)
          -0.1553 ( 57)  0.1048 ( 64)  0.1874 ( 65) -0.1365 ( 69) -0.1024 ( 70)
          -0.1534 ( 72) -0.1358 ( 73)  0.1087 ( 76)  0.2143 ( 80)  0.1011 ( 81)
           0.1224 (101)  0.1217 (108)  0.2114 (114)  0.1837 (116)  0.1105 (119)
 CRD 16=  -0.1128 (  8)  0.3273 ( 12) -0.2891 ( 16)  0.1350 ( 18) -0.2340 ( 21)
           0.1422 ( 27)  0.1005 ( 29) -0.1558 ( 32)  0.2312 ( 37)  0.1709 ( 40)
          -0.1300 ( 41)  0.1057 ( 43)  0.1743 ( 44) -0.1551 ( 45) -0.1069 ( 46)
          -0.2596 ( 47)  0.1378 ( 49) -0.1080 ( 51)  0.1290 ( 66)  0.1064 ( 67)
          -0.1401 ( 68) -0.1067 ( 71)  0.1476 ( 75)  0.1423 ( 86)  0.1636 ( 87)
           0.1438 ( 91)  0.1393 (104)  0.1130 (105)
 CRD 17=   0.1075 (  3)  0.1751 (  4) -0.1282 (  5)  0.3442 (  6)  0.1185 (  8)
          -0.1201 (  9) -0.1013 ( 11) -0.1282 ( 13) -0.1683 ( 16)  0.2989 ( 18)
          -0.1646 ( 19)  0.2323 ( 21) -0.1523 ( 26) -0.1163 ( 40) -0.1007 ( 41)
           0.1068 ( 43) -0.1270 ( 46)  0.1121 ( 48) -0.1431 ( 51)  0.1196 ( 53)
           0.1113 ( 65)  0.1202 ( 68) -0.1700 ( 69) -0.1693 ( 71)  0.1178 ( 72)
          -0.1250 ( 80) -0.1091 ( 83)  0.1006 ( 96) -0.1152 ( 99)  0.1066 (106)
 CRD 18=   0.1309 (  9)  0.1334 ( 12)  0.1035 ( 15) -0.1249 ( 16)  0.1460 ( 18)
          -0.1376 ( 25)  0.1382 ( 28) -0.1195 ( 29)  0.1038 ( 34)  0.2151 ( 41)
          -0.1541 ( 42)  0.1524 ( 48) -0.2147 ( 49) -0.1991 ( 63) -0.1133 ( 65)
          -0.2245 ( 78) -0.1373 ( 80)  0.1095 ( 83)  0.1408 ( 84) -0.1009 ( 89)
          -0.1247 ( 90) -0.1410 ( 92) -0.1143 ( 93) -0.1460 (103) -0.1654 (104)
          -0.1387 (110) -0.2115 (111) -0.1001 (112) -0.1243 (114) -0.2148 (115)
          -0.1290 (116) -0.1052 (118)  0.1175 (119)  0.1462 (120) -0.1222 (121)
 CRD 19=   0.1261 (  5) -0.1557 (  6) -0.3861 ( 12)  0.3437 ( 14) -0.4460 ( 16)
           0.1677 ( 18) -0.1422 ( 19)  0.1517 ( 21) -0.1547 ( 38)  0.1214 ( 66)
           0.1203 ( 70)  0.1249 ( 91) -0.1285 ( 96) -0.1155 ( 97) -0.1027 (106)
 CRD 20=  -0.1573 (  4)  0.2990 (  8) -0.1481 (  9)  0.2734 ( 12) -0.1838 ( 16)
          -0.1291 ( 25)  0.1178 ( 34) -0.1137 ( 36)  0.2333 ( 42) -0.1061 ( 44)
          -0.2083 ( 48)  0.2079 ( 65)  0.1163 ( 72) -0.1192 ( 75)  0.1834 ( 80)
           0.1160 ( 82)  0.1255 ( 83)  0.1165 ( 84) -0.1141 ( 90) -0.1428 ( 92)
          -0.1123 ( 93) -0.1744 (103) -0.2211 (104) -0.1906 (110)  0.1967 (114)
           0.1949 (116) -0.1479 (121)
 CRD 21=   0.3423 (  4) -0.2258 (  5)  0.3093 (  6)  0.1877 (  8) -0.1986 (  9)
           0.1249 ( 16)  0.1475 ( 27) -0.1085 ( 28)  0.1403 ( 32) -0.1096 ( 34)
           0.1289 ( 62) -0.1047 ( 69) -0.1238 ( 77)  0.1265 ( 83)  0.1830 ( 84)
           0.1174 ( 85)  0.1088 ( 91) -0.2136 ( 94) -0.1492 ( 95) -0.1713 ( 96)
          -0.1390 ( 97)  0.1331 ( 99)  0.1054 (100)  0.1305 (101) -0.1585 (106)
           0.1027 (109) -0.1469 (119)  0.1145 (120) -0.1262 (122)
 CRD 22=   0.2033 (  4)  0.2870 (  6)  0.1392 (  8)  0.2653 ( 14) -0.1249 ( 16)
          -0.1400 ( 28) -0.1422 ( 29)  0.2193 ( 41)  0.2063 ( 49) -0.1266 ( 62)
          -0.2711 ( 63) -0.1054 ( 64) -0.1630 ( 65)  0.1264 ( 77)  0.2397 ( 78)
           0.1865 ( 80) -0.1072 ( 85)  0.1441 ( 94)  0.1290 ( 95)  0.1547 (111)
           0.1139 (112)  0.1029 (113)  0.1015 (114) -0.1908 (115)  0.1032 (119)
 CRD 23=  -0.4777 (  4) -0.7098 (  5)  0.1472 ( 14)  0.1578 ( 27) -0.2131 ( 59)
          -0.1108 ( 80)  0.1891 ( 91)  0.1868 (101)  0.1979 (113)
 CRD 24=  -0.3201 (  4)  0.1026 (  5)  0.3804 (  8) -0.2455 (  9) -0.1231 ( 10)
           0.1328 ( 11)  0.1488 ( 18) -0.2354 ( 21)  0.1091 ( 28) -0.1642 ( 29)
           0.1130 ( 32)  0.1121 ( 63) -0.2242 ( 86) -0.1801 ( 87) -0.1540 ( 88)
          -0.1089 ( 91) -0.1480 (100) -0.1029 (101) -0.2203 (107) -0.1762 (108)
          -0.1618 (112) -0.1167 (113)  0.1076 (115) -0.1875 (117) -0.2316 (118)
 CRD 25=  -0.5441 (  8) -0.6920 (  9) -0.2342 ( 60)  0.1293 ( 65) -0.1448 ( 87)
          -0.1405 (108)  0.1189 (116) -0.1448 (117)
 CRD 26=  -0.3005 (  4)  0.2261 (  6) -0.1228 (  8) -0.3379 ( 14)  0.1593 ( 18)
           0.1168 ( 21)  0.1228 ( 41)  0.1326 ( 49) -0.1139 ( 59) -0.2520 ( 63)
          -0.1294 ( 64) -0.1442 ( 65)  0.2913 ( 78)  0.1302 ( 79)  0.1640 ( 80)
           0.1056 ( 86) -0.1766 ( 88) -0.1845 (100)  0.1106 (107)  0.2047 (111)
          -0.2007 (112) -0.1007 (113) -0.1656 (115)  0.1133 (118)
 CRD 27=  -0.1856 ( 12) -0.1811 ( 25) -0.1162 ( 34) -0.1195 ( 66) -0.2576 ( 82)
          -0.1489 ( 83)  0.2279 ( 84)  0.1322 ( 85) -0.1333 ( 89) -0.1774 ( 90)
           0.1084 ( 92) -0.1811 ( 94) -0.1110 ( 95)  0.1882 ( 96)  0.3037 ( 97)
          -0.1180 ( 99) -0.2847 (103)  0.1792 (104)  0.1426 (106) -0.2267 (109)
           0.1459 (110) -0.1405 (119)  0.1910 (120) -0.2407 (121)  0.2580 (122)
 CRD 28=  -0.1760 ( 10) -0.3453 ( 12)  0.1976 ( 16)  0.1007 ( 17)  0.3998 ( 18)
           0.2925 ( 19) -0.2598 ( 21)  0.1292 ( 34)  0.2631 ( 39) -0.1063 ( 47)
          -0.2886 ( 52) -0.2566 ( 55)  0.2792 ( 58)  0.1002 ( 94)
 CRD 29=  -0.1712 ( 10)  0.1176 ( 11) -0.1510 ( 14) -0.2026 ( 15) -0.3821 ( 16)
           0.5902 ( 19)  0.1064 ( 20)  0.2637 ( 21)  0.2656 ( 50)  0.1053 ( 52)
          -0.2492 ( 56) -0.1350 ( 58)
 CRD 30=   0.2256 ( 12)  0.1471 ( 14)  0.1002 ( 16) -0.1186 ( 42) -0.1138 ( 48)
           0.1233 ( 61) -0.1942 ( 65) -0.2312 ( 67)  0.2311 ( 74) -0.1221 ( 76)
           0.1989 ( 80)  0.2225 ( 82) -0.2431 ( 89)  0.2534 ( 93) -0.2318 ( 97)
          -0.2465 ( 99)  0.1697 (102) -0.1643 (105)  0.2415 (106)  0.1536 (110)
           0.2074 (114) -0.1973 (116) -0.1367 (121)
 CRD 31=   0.1017 (  4) -0.1538 (  5)  0.1115 (  7)  0.1052 (  9)  0.2283 ( 11)
           0.2876 ( 12) -0.2298 ( 13) -0.2812 ( 16)  0.2408 ( 17)  0.2639 ( 18)
          -0.2652 ( 20) -0.2744 ( 21)  0.1294 ( 22) -0.1216 ( 33) -0.2083 ( 37)
           0.2210 ( 47) -0.1660 ( 52)  0.1675 ( 58) -0.1044 (102)  0.1098 (107)
 CRD 32=   0.2452 (  4) -0.1902 (  5) -0.4783 (  6)  0.2345 (  8) -0.1845 (  9)
           0.1578 ( 10) -0.3708 ( 14)  0.1550 ( 15) -0.1078 ( 17)  0.1918 ( 18)
          -0.1656 ( 19)  0.2109 ( 21)  0.1005 ( 37) -0.1004 ( 39) -0.1090 ( 54)
           0.1368 (113) -0.1263 (117)
 CRD 33=  -0.3009 (  3) -0.1938 (  5)  0.3113 (  7)  0.1254 (  9) -0.1395 ( 10)
           0.1116 ( 15) -0.1441 ( 17) -0.1700 ( 18)  0.1988 ( 20)  0.1167 ( 21)
           0.3358 ( 22) -0.1047 ( 28)  0.1181 ( 29) -0.3487 ( 33) -0.1090 ( 55)
           0.1066 ( 56)  0.1645 ( 59) -0.1366 ( 60) -0.1013 ( 87) -0.1261 ( 91)
          -0.1561 (101) -0.1305 (108) -0.1851 (113)  0.1009 (115)  0.1292 (116)
          -0.1436 (117)
 CRD 34=   0.1500 (  3) -0.1318 (  7) -0.2201 ( 10)  0.1423 ( 11) -0.1128 ( 13)
           0.2537 ( 15) -0.1118 ( 16) -0.2224 ( 18) -0.1143 ( 19)  0.1299 ( 20)
           0.1928 ( 21)  0.1121 ( 33) -0.2097 ( 37)  0.1943 ( 39)  0.1240 ( 44)
          -0.1277 ( 46)  0.2091 ( 47) -0.2136 ( 50) -0.1825 ( 52)  0.1277 ( 54)
          -0.2756 ( 55)  0.2770 ( 56) -0.1388 ( 57)  0.2070 ( 58) -0.1096 (112)
 CRD 35=   0.1923 ( 10)  0.1740 ( 11) -0.2841 ( 12)  0.1991 ( 13) -0.2614 ( 14)
           0.1300 ( 15) -0.2783 ( 16)  0.2392 ( 17) -0.3439 ( 18) -0.2543 ( 19)
           0.2319 ( 20) -0.4149 ( 21)  0.1307 ( 82) -0.1266 ( 97)
 CRD 36=   0.1264 (  3)  0.1470 (  4) -0.4517 (  6)  0.1148 (  8)  0.3390 ( 14)
          -0.1237 ( 15) -0.1364 ( 18)  0.1160 ( 19) -0.1736 ( 21) -0.1401 ( 26)
           0.1056 ( 53) -0.1561 ( 69)  0.1626 ( 72)  0.1323 ( 86) -0.1426 ( 88)
          -0.1347 (100)  0.1205 (107)  0.1058 (111) -0.2106 (112) -0.1276 (113)
           0.1233 (117)  0.1990 (118)
 CRD 37=   0.1565 (  8) -0.1493 (  9)  0.1312 ( 14)  0.1170 ( 18) -0.1257 ( 20)
           0.1012 ( 21) -0.1203 ( 25) -0.1167 ( 32) -0.1541 ( 34)  0.1369 ( 41)
           0.1002 ( 44) -0.1264 ( 63)  0.2243 ( 81)  0.2034 ( 82)  0.1269 ( 87)
          -0.2110 ( 97) -0.2359 ( 98)  0.1128 (109)  0.1841 (110) -0.1423 (111)
          -0.2878 (114)  0.2503 (116)  0.1022 (117) -0.1683 (121)
 CRD 38=   0.1273 (  3) -0.1553 (  7) -0.1090 ( 17) -0.1127 ( 21) -0.1687 ( 25)
          -0.1252 ( 28)  0.1275 ( 29)  0.1440 ( 34) -0.1207 ( 41) -0.1466 ( 42)
          -0.1087 ( 44)  0.1471 ( 48)  0.1392 ( 49)  0.1372 ( 63) -0.1236 ( 65)
           0.1009 ( 67)  0.1033 ( 74)  0.1594 ( 78) -0.1259 ( 80)  0.2286 ( 84)
           0.1472 ( 89)  0.1674 ( 93)  0.2025 ( 94) -0.1336 ( 99) -0.2064 (103)
          -0.1983 (104) -0.1528 (106) -0.1500 (109)  0.1181 (111) -0.1672 (114)
           0.1825 (115)  0.2234 (119)  0.2136 (120) -0.1109 (121) -0.1352 (122)
 CRD 39=  -0.1091 (  7)  0.1063 (  8)  0.1023 ( 10) -0.2549 ( 11)  0.2695 ( 13)
          -0.1684 ( 15)  0.4379 ( 17) -0.1861 ( 18) -0.3766 ( 20)  0.1753 ( 21)
           0.1216 ( 37)  0.1039 ( 40) -0.1313 ( 47)  0.1083 ( 50) -0.2280 ( 52)
           0.2390 ( 58) -0.1049 ( 69) -0.1090 ( 72) -0.1188 (113) -0.1205 (117)
           0.1283 (119)  0.1070 (120)
 CRD 40=   0.1255 ( 10)  0.1621 ( 13) -0.2170 ( 14)  0.1648 ( 15) -0.2652 ( 17)
          -0.1175 ( 18)  0.4020 ( 19) -0.2804 ( 20) -0.1280 ( 38) -0.1318 ( 40)
          -0.1442 ( 50) -0.1612 ( 51) -0.2044 ( 52)  0.3138 ( 53)  0.2170 ( 55)
           0.3051 ( 56) -0.1092 ( 58)
 CRD 41=  -0.1716 (  4)  0.2328 (  8) -0.1380 (  9)  0.3124 ( 10) -0.1682 ( 12)
          -0.1738 ( 15) -0.1338 ( 17)  0.1226 ( 18) -0.1362 ( 21)  0.1739 ( 29)
          -0.1630 ( 37)  0.1737 ( 44) -0.1576 ( 46)  0.1507 ( 47)  0.1004 ( 54)
           0.1051 ( 55) -0.1203 ( 57) -0.1248 ( 58) -0.1279 ( 69) -0.1877 ( 72)
          -0.1342 ( 78)  0.2148 ( 86)  0.1055 ( 87)  0.1531 ( 88) -0.1413 ( 93)
           0.1011 ( 94)  0.1231 ( 99)  0.1177 (100)  0.1033 (103)  0.1192 (107)
          -0.1120 (111)  0.1117 (122)
 CRD 42=   0.1404 (  5) -0.1113 (  6)  0.1310 (  9) -0.1012 ( 10) -0.2068 ( 15)
           0.1069 ( 16) -0.1295 ( 19)  0.1782 ( 20) -0.1275 ( 23) -0.1379 ( 26)
           0.1064 ( 27) -0.1108 ( 36) -0.1249 ( 38)  0.1072 ( 39)  0.1014 ( 45)
           0.1001 ( 52) -0.1026 ( 53) -0.1230 ( 56) -0.1378 ( 60) -0.1593 ( 61)
           0.1298 ( 65)  0.1285 ( 76) -0.1111 ( 80)  0.1526 ( 82) -0.1226 ( 87)
          -0.1494 ( 89)  0.1166 ( 91) -0.1813 ( 97) -0.2197 (102)  0.1503 (104)
           0.1875 (105)  0.1356 (106)  0.1060 (107)  0.1504 (109)  0.1480 (110)
          -0.1296 (115) -0.1286 (117)  0.1213 (119) -0.1440 (120) -0.1892 (121)
 CRD 43=  -0.2794 (  3)  0.1719 (  5) -0.1416 (  7)  0.1538 (  8) -0.1614 ( 11)
           0.1227 ( 12) -0.1374 ( 13)  0.1338 ( 15)  0.1092 ( 16) -0.1595 ( 18)
          -0.1257 ( 21)  0.1333 ( 27)  0.1069 ( 28)  0.1131 ( 29) -0.1127 ( 40)
          -0.1529 ( 51)  0.1023 ( 53) -0.1671 ( 54) -0.1071 ( 57) -0.2300 ( 59)
          -0.1810 ( 60)  0.1355 ( 81) -0.1054 ( 88)  0.1340 ( 91) -0.1873 (100)
           0.1311 (102)  0.1888 (107)  0.1271 (110)  0.2051 (113) -0.1605 (114)
           0.1558 (116) -0.1299 (117)
 CRD 44=  -0.2202 (  3)  0.1718 (  5)  0.2609 (  7) -0.1957 (  9)  0.1597 ( 11)
          -0.1445 ( 12)  0.1198 ( 17) -0.1466 ( 20)  0.1491 ( 22)  0.1508 ( 27)
          -0.1479 ( 32) -0.1531 ( 33) -0.1060 ( 39)  0.1028 ( 40)  0.1174 ( 57)
           0.1305 ( 60) -0.1484 ( 68) -0.1051 ( 71)  0.1464 ( 74)  0.1006 ( 85)
           0.1654 ( 87) -0.1567 ( 90)  0.1255 ( 91) -0.1410 ( 92)  0.1053 ( 98)
          -0.1474 ( 99)  0.1430 (105) -0.1415 (106) -0.1126 (107) -0.1523 (109)
           0.1282 (110) -0.1148 (116)  0.1407 (117)  0.1194 (121) -0.1365 (122)
 CRD 45=  -0.2356 (  3)  0.1811 (  4)  0.1792 ( 11) -0.1342 ( 12) -0.1038 ( 13)
          -0.1234 ( 20)  0.1054 ( 21)  0.1267 ( 28)  0.1288 ( 34) -0.1154 ( 39)
          -0.1012 ( 41) -0.1406 ( 45) -0.2259 ( 59)  0.1074 ( 63) -0.1396 ( 67)
          -0.1114 ( 68)  0.1965 ( 75) -0.1038 ( 77)  0.1122 ( 78) -0.1363 ( 83)
          -0.1750 ( 88)  0.1303 ( 92) -0.1349 ( 93) -0.1013 ( 97)  0.1238 ( 99)
          -0.1406 (100) -0.1254 (102)  0.1744 (106) -0.1335 (108)  0.2160 (109)
          -0.2690 (110)  0.1091 (111) -0.1148 (112)  0.1194 (113)  0.1123 (115)
          -0.1892 (121)
 CRD 46=  -0.1332 (  6)  0.2457 (  7) -0.2118 (  8) -0.1012 ( 13) -0.1077 ( 14)
          -0.1138 ( 15)  0.1941 ( 16)  0.1199 ( 17)  0.1156 ( 22) -0.1266 ( 26)
          -0.1111 ( 28) -0.1762 ( 29)  0.1006 ( 42)  0.1771 ( 43)  0.1478 ( 47)
           0.1301 ( 50)  0.1493 ( 60) -0.1668 ( 62) -0.1131 ( 64)  0.1090 ( 66)
           0.1141 ( 68) -0.1548 ( 71) -0.1148 ( 74)  0.1268 ( 77)  0.1051 ( 78)
          -0.1530 ( 86)  0.1299 ( 88)  0.1394 ( 91)  0.1231 ( 94)  0.1376 (102)
          -0.1709 (105) -0.1239 (107) -0.1003 (110)  0.1204 (115) -0.1839 (118)
           0.1865 (120) -0.1171 (121)  0.1154 (122)
 CRD 47=   0.1532 (  3) -0.1123 (  4) -0.1339 (  9) -0.3157 ( 13)  0.2172 ( 15)
          -0.1553 ( 18) -0.1530 ( 23)  0.1534 ( 24) -0.1077 ( 31) -0.1019 ( 32)
           0.1857 ( 46) -0.1584 ( 51) -0.2325 ( 54)  0.1712 ( 59)  0.1330 ( 66)
           0.1607 ( 69) -0.1444 ( 71) -0.1009 ( 78) -0.1242 ( 91) -0.2086 (101)
           0.1311 (109)  0.2922 (112) -0.1132 (115) -0.1223 (116) -0.1550 (121)
 CRD 48=   0.1983 (  4) -0.1531 (  5) -0.1358 (  8)  0.2647 ( 10) -0.2324 ( 11)
           0.1038 ( 14) -0.1130 ( 22) -0.1272 ( 27)  0.1365 ( 28)  0.1408 ( 35)
          -0.1742 ( 36)  0.1833 ( 44) -0.1800 ( 57)  0.1257 ( 60)  0.1304 ( 63)
           0.1151 ( 69)  0.1188 ( 70) -0.1936 ( 72) -0.1538 ( 77) -0.1306 ( 79)
           0.1380 ( 87) -0.1225 (100)  0.1217 (108)  0.1101 (110)  0.1360 (111)
          -0.1527 (117) -0.3127 (118)  0.1681 (119)
 CRD 49=   0.1596 (  3) -0.1860 (  7)  0.2476 (  9)  0.1091 ( 10)  0.1381 ( 11)
          -0.2308 ( 12) -0.1704 ( 13) -0.1050 ( 20)  0.1054 ( 30)  0.1496 ( 32)
           0.1236 ( 33)  0.1005 ( 34) -0.1052 ( 35) -0.1230 ( 37) -0.1110 ( 39)
           0.1010 ( 40) -0.1391 ( 45) -0.1760 ( 60) -0.1156 ( 64)  0.1363 ( 65)
           0.1064 ( 72)  0.2137 ( 73)  0.1987 ( 74) -0.1594 ( 76) -0.1363 ( 81)
           0.1515 ( 86) -0.1523 ( 92)  0.1076 ( 95) -0.1031 (101) -0.2787 (108)
           0.1156 (116) -0.1640 (117)
 CRD 50=  -0.1362 (  4)  0.1846 (  5)  0.1154 (  7)  0.1294 ( 10) -0.1850 ( 11)
           0.1339 ( 14)  0.1775 ( 15) -0.2170 ( 16)  0.1174 ( 22) -0.1534 ( 26)
           0.1273 ( 27) -0.1362 ( 28)  0.2036 ( 38) -0.1529 ( 43)  0.1305 ( 44)
           0.1856 ( 46) -0.1490 ( 47)  0.1093 ( 48)  0.2016 ( 61)  0.1049 ( 62)
          -0.2739 ( 70)  0.1213 ( 73)  0.1262 ( 79) -0.1005 ( 80) -0.1158 ( 81)
          -0.1106 ( 88)  0.1224 ( 89)  0.1177 ( 90)  0.2109 ( 98)  0.1249 (100)
           0.1493 (101)  0.1081 (113) -0.1149 (118)  0.1133 (120)
 CRD 51=   0.2323 ( 23) -0.1585 ( 24)  0.1233 ( 31)  0.1544 ( 36) -0.2406 ( 66)
           0.1120 ( 70) -0.1451 ( 74) -0.2827 ( 83)  0.1006 ( 85) -0.1955 ( 90)
           0.1703 ( 92)  0.2916 ( 96)  0.1580 (102) -0.1146 (105)  0.2732 (109)
          -0.1227 (110)  0.1917 (121) -0.3837 (122)
 CRD 52=  -0.2114 ( 15) -0.2294 ( 23) -0.1967 ( 36)  0.1600 ( 45)  0.1104 ( 47)
           0.2374 ( 61)  0.1454 ( 67) -0.1313 ( 73)  0.1007 ( 75) -0.2646 ( 76)
          -0.1198 ( 83) -0.2489 ( 85)  0.1539 ( 89) -0.1309 ( 93)  0.2579 ( 95)
           0.1724 ( 96) -0.1676 (103)  0.1042 (104)  0.1125 (109) -0.2696 (119)
           0.2473 (120) -0.1764 (122)
 CRD 53=   0.1258 ( 23) -0.1252 ( 24) -0.1108 ( 27)  0.1250 ( 31) -0.1051 ( 32)
           0.1274 ( 36) -0.1512 ( 62)  0.2160 ( 64)  0.2556 ( 65)  0.1078 ( 70)
           0.1580 ( 77) -0.2161 ( 79) -0.2938 ( 80) -0.1649 ( 81)  0.1377 ( 83)
           0.1413 ( 90) -0.1669 ( 96)  0.1755 ( 98)  0.3545 (111) -0.2854 (115)
          -0.1253 (116)  0.1340 (120) -0.1012 (121)  0.1428 (122)
 CRD 54=  -0.1941 ( 10)  0.1436 ( 22) -0.1912 ( 23) -0.1271 ( 24)  0.1445 ( 25)
          -0.1538 ( 30)  0.2078 ( 31)  0.1387 ( 32) -0.1137 ( 33)  0.2450 ( 35)
          -0.2979 ( 36)  0.1011 ( 37) -0.1880 ( 39)  0.1396 ( 40)  0.1200 ( 41)
           0.1718 ( 43) -0.1202 ( 48) -0.1144 ( 49)  0.1331 ( 50) -0.1420 ( 51)
           0.1771 ( 61) -0.1308 ( 67)  0.1124 ( 68)  0.1546 ( 70)  0.1036 ( 71)
           0.1463 ( 73) -0.1223 ( 74) -0.1351 ( 75) -0.1200 ( 76) -0.1327 ( 85)
           0.1218 ( 90)  0.1433 ( 95)  0.1079 (120)

 THE DETERMINANT OF THE G MATRIX IS 10**(   -20)


                     --------------------
                     INTERNAL COORDINATES
                     --------------------

                 - - ATOMS - -         COORDINATE      COORDINATE
 NO.   TYPE    I  J  K  L  M  N        (BOHR,RAD)       (ANG,DEG)
 ----------------------------------------------------------------
   1 STRETCH   1  6                     3.7843816       2.0026086
   2 STRETCH   3  4                     3.7763257       1.9983456
   3 STRETCH   1  2                     2.5655651       1.3576387
   4 STRETCH   1 12                     2.0706106       1.0957200
   5 STRETCH   1 11                     2.0656136       1.0930757
   6 STRETCH   2 13                     2.0545478       1.0872199
   7 STRETCH   2  3                     2.8431467       1.5045285
   8 STRETCH   3 14                     2.0653531       1.0929379
   9 STRETCH   3 15                     2.0662398       1.0934071
  10 STRETCH   4  9                     2.8687355       1.5180695
  11 STRETCH   4  5                     2.8418184       1.5038256
  12 STRETCH   4 16                     2.0639156       1.0921772
  13 STRETCH   5  6                     2.5724505       1.3612823
  14 STRETCH   5 17                     2.0514455       1.0855783
  15 STRETCH   6  7                     2.8025855       1.4830645
  16 STRETCH   6 18                     2.0711607       1.0960111
  17 STRETCH   7  8                     2.5343448       1.3411176
  18 STRETCH   7 19                     2.0541487       1.0870088
  19 STRETCH   8 20                     2.0436599       1.0814583
  20 STRETCH   8  9                     2.8079626       1.4859099
  21 STRETCH   9 10                     2.3232366       1.2294039
  22 BEND      1  2 13                  2.0903181     119.7664070
  23 BEND      1  6  7                  1.8445789     105.6865871
  24 BEND      1  6  5                  1.7966626     102.9411861
  25 BEND      1  6 18                  1.6682585      95.5841706
  26 BEND      1  2  3                  2.0906625     119.7861391
  27 BEND      2  1 12                  2.0235143     115.9388319
  28 BEND      2  1 11                  2.0593911     117.9944196
  29 BEND      2  3 15                  1.9681249     112.7652508
  30 BEND      2  3  4                  1.8391954     105.3781333
  31 BEND      2  1  6                  1.9036438     109.0707565
  32 BEND      2  3 14                  2.0109670     115.2199210
  33 BEND      3  2 13                  2.0492531     117.4135515
  34 BEND      3  4 16                  1.8529509     106.1662650
  35 BEND      3  4  5                  1.8064976     103.5046895
  36 BEND      3  4  9                  1.8185795     104.1969280
  37 BEND      4  5 17                  2.0701496     118.6108354
  38 BEND      4  5  6                  2.0254801     116.0514619
  39 BEND      4  9 10                  2.1400747     122.6172480
  40 BEND      4  9  8                  2.0551776     117.7530015
  41 BEND      4  3 15                  1.8028591     103.2962187
  42 BEND      4  3 14                  1.8532284     106.1821660
  43 BEND      5  6  7                  2.0061741     114.9453075
  44 BEND      5  4 16                  2.0096013     115.1416728
  45 BEND      5  4  9                  1.9801689     113.4553217
  46 BEND      5  6 18                  2.0647490     118.3014026
  47 BEND      6  5 17                  2.1035441     120.5241978
  48 BEND      6  1 12                  1.5356360      87.9854641
  49 BEND      6  1 11                  1.7970053     102.9608200
  50 BEND      6  7 19                  2.0337680     116.5263256
  51 BEND      6  7  8                  2.1481730     123.0812451
  52 BEND      7  8 20                  2.1554929     123.5006467
  53 BEND      7  8  9                  2.0759494     118.9431405
  54 BEND      7  6 18                  2.0133660     115.3573727
  55 BEND      8  9 10                  2.0871655     119.5857745
  56 BEND      8  7 19                  2.1011781     120.3886363
  57 BEND      9  4 16                  1.9713652     112.9509050
  58 BEND      9  8 20                  2.0517401     117.5560470
  59 BEND     11  1 12                  2.0392371     116.8396781
  60 BEND     14  3 15                  1.9673490     112.7207952
  61 TORSION   1  6  5 17               1.5099153      86.5117764
  62 TORSION   1  6  5  4              -1.1969698     -68.5813149
  63 TORSION   1  2  3 15              -2.9077063    -166.5992971
  64 TORSION   1  2  3  4              -0.9534893     -54.6309111
  65 TORSION   1  2  3 14               1.0829911      62.0508167
  66 TORSION   1  6  7  8               1.5320461      87.7797762
  67 TORSION   1  6  7 19              -1.6218891     -92.9273996
  68 TORSION   2  3  4  9               1.9679570     112.7556324
  69 TORSION   2  1  6 18               2.1779048     124.7847511
  70 TORSION   2  1  6  5               0.0704673       4.0374815
  71 TORSION   2  1  6  7              -2.0401911    -116.8943408
  72 TORSION   2  3  4 16              -2.2299050    -127.7641439
  73 TORSION   2  3  4  5              -0.1069234      -6.1262583
  74 TORSION   3  4  9 10               1.4445971      82.7693167
  75 TORSION   3  4  9  8              -1.6546783     -94.8060831
  76 TORSION   3  4  5 17              -1.4945739     -85.6327787
  77 TORSION   3  4  5  6               1.2210090      69.9586633
  78 TORSION   3  2  1 11               3.0423489     174.3137530
  79 TORSION   3  2  1  6               1.0019530      57.4076785
  80 TORSION   3  2  1 12              -0.6959817     -39.8768117
  81 TORSION   4  3  2 13               1.8436774     105.6349360
  82 TORSION   4  9  8 20              -3.0977424    -177.4875678
  83 TORSION   4  9  8  7               0.0463446       2.6553489
  84 TORSION   4  5  6 18              -3.0071806    -172.2987590
  85 TORSION   4  5  6  7               0.7994068      45.8026331
  86 TORSION   5  4  3 15               1.9615388     112.3878957
  87 TORSION   5  4  3 14              -2.2481081    -128.8071085
  88 TORSION   5  6  1 11              -2.1303865    -122.0621557
  89 TORSION   5  6  7 19               2.6929323     154.2936581
  90 TORSION   5  6  7  8              -0.4363178     -24.9991661
  91 TORSION   5  6  1 12               2.1090801     120.8413891
  92 TORSION   5  4  9  8               0.2976510      17.0541467
  93 TORSION   5  4  9 10              -2.8862589    -165.3704535
  94 TORSION   6  5  4 16              -3.0479671    -174.6356534
  95 TORSION   6  5  4  9              -0.7386674     -42.3225239
  96 TORSION   6  7  8  9               0.0009537       0.0546457
  97 TORSION   6  7  8 20              -3.1379870    -179.7934090
  98 TORSION   6  1  2 13              -1.7870815    -102.3922253
  99 TORSION   7  8  9 10              -3.0542614    -174.9962863
 100 TORSION   7  6  1 11               2.0421403     117.0060219
 101 TORSION   7  6  1 12              -0.0015784      -0.0904333
 102 TORSION   7  6  5 17              -2.7768935    -159.1042756
 103 TORSION   8  7  6 18              -2.9328823    -168.0417766
 104 TORSION   8  9  4 16               2.6253506     150.4215080
 105 TORSION   9  4  5 17               2.8289350     162.0860342
 106 TORSION   9  8  7 19              -3.1278368    -179.2118488
 107 TORSION   9  4  3 15              -2.2467661    -128.7302136
 108 TORSION   9  4  3 14              -0.1732277      -9.9252178
 109 TORSION  10  9  8 20               0.0848369       4.8607970
 110 TORSION  10  9  4 16              -0.5585593     -32.0030922
 111 TORSION  11  1  2 13               0.2533145      14.5138493
 112 TORSION  11  1  6 18              -0.0229491      -1.3148862
 113 TORSION  12  1  6 18              -2.0666678    -118.4113414
 114 TORSION  12  1  2 13               2.7981692     160.3232845
 115 TORSION  13  2  3 15              -0.1105396      -6.3334500
 116 TORSION  13  2  3 14              -2.4030275    -137.6833362
 117 TORSION  14  3  4 16               1.9120956     109.5550058
 118 TORSION  15  3  4 16              -0.1614428      -9.2499900
 119 TORSION  16  4  5 17               0.5196352      29.7729047
 120 TORSION  17  5  6 18              -0.3002956     -17.2056677
 121 TORSION  18  6  7 19               0.1963678      11.2510477
 122 TORSION  19  7  8 20               0.0164078       0.9400964

     ------------------------------------------
     THE POINT GROUP IS C1 , NAXIS= 0, ORDER= 1
     ------------------------------------------

     DIMENSIONS OF THE SYMMETRY SUBSPACES ARE
 A   =   60

 ..... DONE SETTING UP THE RUN .....
 STEP CPU TIME =     0.14 TOTAL CPU TIME =          0.1 (      0.0 MIN)
 TOTAL WALL CLOCK TIME=          0.1 SECONDS, CPU UTILIZATION IS   100.00%


          -----------------------------
          STATIONARY POINT LOCATION RUN
          -----------------------------


           ** GEOMETRY CONSTRAINTS ARE BEING APPLIED. **

          TRANSFORMING DISPLACEMENT FROM INTERNALS TO CARTESIANS
          THE ROOT MEAN SQUARE ERROR IN ITERATION   1 IS   0.00000137
          THE ROOT MEAN SQUARE ERROR IN ITERATION   2 IS   0.00000000
 WARNING! THE RADIUS IN CARTESIANS IS    0.00945
 OBTAINING INITIAL HESSIAN, HESS=CALC    

     ---------------------------------
     HESSIAN MATRIX CONTROL PARAMETERS
     ---------------------------------
     METHOD=ANALYTIC   NVIB  =       2   VIBSIZ= 0.01000
     RDHESS=       F   PURIFY=       F   PRTIFC=       F
     VIBANL=       F   DECOMP=       F   PROJCT=       F
     SCLFAC= 1.00000   PRTSCN=       F   NPRT  =       0
     PULCOR=       F   NPUN  =       0   REDOVB=       T
     HSSTYP=GENERAL 
 Old integral subroutine is used

     ------------------------------
     CPHF RESPONSE SOLUTION OPTIONS
     ------------------------------
     POLAR  =       F     NWORD  =       0
     CPHF   =AO      

          ********************
          1 ELECTRON INTEGRALS
          ********************
 ...... END OF ONE-ELECTRON INTEGRALS ......
 STEP CPU TIME =     0.06 TOTAL CPU TIME =          0.2 (      0.0 MIN)
 TOTAL WALL CLOCK TIME=          0.2 SECONDS, CPU UTILIZATION IS    95.24%

          -------------
          GUESS OPTIONS
          -------------
          GUESS =HUCKEL            NORB  =       0          NORDER=       0
          MIX   =       F          PRTMO =       F          PUNMO =       F
          TOLZ  = 1.0E-08          TOLE  = 1.0E-05
          SYMDEN=       F          PURIFY=       F

 INITIAL GUESS ORBITALS GENERATED BY HUCKEL   ROUTINE.
 HUCKEL GUESS REQUIRES     53820 WORDS.

 SYMMETRIES FOR INITIAL GUESS ORBITALS FOLLOW.   BOTH SET(S).
    36 ORBITALS ARE OCCUPIED (   10 CORE ORBITALS).
    11=A       12=A       13=A       14=A       15=A       16=A       17=A   
    18=A       19=A       20=A       21=A       22=A       23=A       24=A   
    25=A       26=A       27=A       28=A       29=A       30=A       31=A   
    32=A       33=A       34=A       35=A       36=A       37=A       38=A   
    39=A       40=A       41=A       42=A       43=A       44=A       45=A   
    46=A   
 ...... END OF INITIAL ORBITAL SELECTION ......
 STEP CPU TIME =     0.03 TOTAL CPU TIME =          0.2 (      0.0 MIN)
 TOTAL WALL CLOCK TIME=          0.2 SECONDS, CPU UTILIZATION IS    95.83%

                    ----------------------
                    AO INTEGRAL TECHNOLOGY
                    ----------------------
     S,P,L SHELL ROTATED AXIS INTEGRALS, REPROGRAMMED BY
        KAZUYA ISHIMURA (IMS) AND JOSE SIERRA (SYNSTAR).
     S,P,D,L SHELL ROTATED AXIS INTEGRALS PROGRAMMED BY
        KAZUYA ISHIMURA (INSTITUTE FOR MOLECULAR SCIENCE).
     S,P,D,F,G SHELL TO TOTAL QUARTET ANGULAR MOMENTUM SUM 5,
        ERIC PROGRAM BY GRAHAM FLETCHER (ELORET AND NASA ADVANCED
        SUPERCOMPUTING DIVISION, AMES RESEARCH CENTER).
     S,P,D,F,G,L SHELL GENERAL RYS QUADRATURE PROGRAMMED BY
        MICHEL DUPUIS (PACIFIC NORTHWEST NATIONAL LABORATORY).

          --------------------
          2 ELECTRON INTEGRALS
          --------------------

 THE -PK- OPTION IS OFF, THE INTEGRALS ARE NOT IN SUPERMATRIX FORM.
 STORING   15000 INTEGRALS/RECORD ON DISK, USING 12 BYTES/INTEGRAL.
 TWO ELECTRON INTEGRAL EVALUATION REQUIRES   89821 WORDS OF MEMORY.
 SCHWARZ INEQUALITY OVERHEAD:      1797 INTEGRALS, T=        0.00
 II,JST,KST,LST =  1  1  1  1 NREC =         1 INTLOC =    1
 II,JST,KST,LST =  2  1  1  1 NREC =         1 INTLOC =    2
 II,JST,KST,LST =  3  1  1  1 NREC =         1 INTLOC =   34
 II,JST,KST,LST =  4  1  1  1 NREC =         1 INTLOC =  144
 II,JST,KST,LST =  5  1  1  1 NREC =         1 INTLOC = 1366
 II,JST,KST,LST =  6  1  1  1 NREC =         1 INTLOC = 1953
 II,JST,KST,LST =  7  1  1  1 NREC =         1 INTLOC = 6854
 II,JST,KST,LST =  8  1  1  1 NREC =         1 INTLOC = 8472
 II,JST,KST,LST =  9  1  1  1 NREC =         2 INTLOC = 5872
 II,JST,KST,LST = 10  1  1  1 NREC =         2 INTLOC = 9606
 II,JST,KST,LST = 11  1  1  1 NREC =         4 INTLOC = 4944
 II,JST,KST,LST = 12  1  1  1 NREC =         4 INTLOC =12073
 II,JST,KST,LST = 13  1  1  1 NREC =         7 INTLOC =12146
 II,JST,KST,LST = 14  1  1  1 NREC =         8 INTLOC = 8326
 II,JST,KST,LST = 15  1  1  1 NREC =        13 INTLOC = 5165
 II,JST,KST,LST = 16  1  1  1 NREC =        14 INTLOC = 6725
 II,JST,KST,LST = 17  1  1  1 NREC =        21 INTLOC = 8794
 II,JST,KST,LST = 18  1  1  1 NREC =        23 INTLOC = 4430
 II,JST,KST,LST = 19  1  1  1 NREC =        33 INTLOC =10786
 II,JST,KST,LST = 20  1  1  1 NREC =        35 INTLOC = 5924
 II,JST,KST,LST = 21  1  1  1 NREC =        47 INTLOC = 5403
 II,JST,KST,LST = 22  1  1  1 NREC =        51 INTLOC =  801
 II,JST,KST,LST = 23  1  1  1 NREC =        55 INTLOC = 5518
 II,JST,KST,LST = 24  1  1  1 NREC =        59 INTLOC = 7295
 II,JST,KST,LST = 25  1  1  1 NREC =        64 INTLOC = 5182
 II,JST,KST,LST = 26  1  1  1 NREC =        69 INTLOC = 4195
 II,JST,KST,LST = 27  1  1  1 NREC =        74 INTLOC =10458
 II,JST,KST,LST = 28  1  1  1 NREC =        80 INTLOC = 5087
 II,JST,KST,LST = 29  1  1  1 NREC =        86 INTLOC = 2155
 II,JST,KST,LST = 30  1  1  1 NREC =        92 INTLOC = 3302
 SCHWARZ INEQUALITY TEST SKIPPED       25063 INTEGRAL BLOCKS.
 TOTAL NUMBER OF NONZERO TWO-ELECTRON INTEGRALS =             1464027
         98 INTEGRAL RECORDS WERE STORED ON DISK FILE  8.
  ...... END OF TWO-ELECTRON INTEGRALS .....
 STEP CPU TIME =     0.33 TOTAL CPU TIME =          0.6 (      0.0 MIN)
 TOTAL WALL CLOCK TIME=          0.6 SECONDS, CPU UTILIZATION IS    96.55%

          --------------------------
                 RHF SCF CALCULATION
          --------------------------

     NUCLEAR ENERGY =       505.2548781053
     MAXIT =   30     NPUNCH=    2
     EXTRAP=T  DAMP=F  SHIFT=F  RSTRCT=F  DIIS=F  DEM=F  SOSCF=T
     DENSITY MATRIX CONV=  1.00E-05
     SOSCF WILL OPTIMIZE     864 ORBITAL ROTATIONS, SOGTOL=   0.250
     MEMORY REQUIRED FOR RHF ITERS=     59496 WORDS.

 ITER EX DEM     TOTAL ENERGY        E CHANGE  DENSITY CHANGE     ORB. GRAD
   1  0  0     -415.4881204549  -415.4881204549   0.520907485   0.000000000
          ---------------START SECOND ORDER SCF---------------
   2  1  0     -416.0011242504    -0.5130037955   0.264425743   0.061779835
   3  2  0     -416.0335407387    -0.0324164883   0.120937868   0.049701163
   4  3  0     -416.0681892592    -0.0346485205   0.015677137   0.006575155
   5  4  0     -416.0691423252    -0.0009530660   0.005137796   0.003322033
   6  5  0     -416.0692866635    -0.0001443384   0.002388709   0.000842139
   7  6  0     -416.0693072904    -0.0000206268   0.000916163   0.000261258
   8  7  0     -416.0693094246    -0.0000021342   0.000326660   0.000103804
   9  8  0     -416.0693098644    -0.0000004398   0.000110784   0.000035879
  10  9  0     -416.0693099211    -0.0000000567   0.000061991   0.000016302
  11 10  0     -416.0693099295    -0.0000000084   0.000022332   0.000003411
  12 11  0     -416.0693099305    -0.0000000010   0.000008424   0.000002108
  13 12  0     -416.0693099307    -0.0000000002   0.000005921   0.000000805

          -----------------
          DENSITY CONVERGED
          -----------------
     TIME TO FORM FOCK OPERATORS=       0.3 SECONDS (       0.0 SEC/ITER)
     TIME TO SOLVE SCF EQUATIONS=       0.1 SECONDS (       0.0 SEC/ITER)

 FINAL RHF ENERGY IS     -416.0693099307 AFTER  13 ITERATIONS

          ------------
          EIGENVECTORS
          ------------

                      1          2          3          4          5
                  -20.2542   -11.1107   -11.0518   -11.0504   -11.0499
                     A          A          A          A          A   
    1  C  1  S    0.000000   0.000034  -0.020149   0.000693  -0.002313
    2  C  1  S    0.000002   0.000020  -0.003466  -0.000121  -0.000017
    3  C  1  X   -0.000000   0.000019  -0.001457  -0.000031   0.000006
    4  C  1  Y    0.000002  -0.000017  -0.001706  -0.000023  -0.000083
    5  C  1  Z    0.000001  -0.000012   0.001223   0.000068   0.000063
    6  C  2  S    0.000000   0.000015  -0.000404   0.000656  -0.001219
    7  C  2  S    0.000001   0.000004   0.000310   0.003985  -0.004238
    8  C  2  X   -0.000005   0.000040   0.000238  -0.001222   0.001365
    9  C  2  Y    0.000005  -0.000019   0.000011   0.000495  -0.000489
   10  C  2  Z    0.000002  -0.000015  -0.000039  -0.002563   0.002732
   11  C  3  S   -0.000006  -0.000327   0.001600  -0.664349   0.737147
   12  C  3  S    0.000021   0.000122   0.000116  -0.025145   0.024050
   13  C  3  X    0.000024  -0.000177  -0.000015  -0.000301  -0.001946
   14  C  3  Y   -0.000012  -0.000020   0.000031  -0.000460  -0.001802
   15  C  3  Z   -0.000035   0.000119  -0.000028   0.000229   0.001428
   16  C  4  S   -0.000023  -0.001833  -0.023373   0.736258   0.664723
   17  C  4  S    0.000264  -0.005565  -0.000782   0.027498   0.021391
   18  C  4  X   -0.000270  -0.001435  -0.000130   0.000011   0.002039
   19  C  4  Y    0.000043   0.002136   0.000194  -0.000272   0.001834
   20  C  4  Z   -0.000361   0.003167  -0.000050   0.000070  -0.001444
   21  C  5  S    0.000005  -0.000313   0.008814  -0.000827  -0.001685
   22  C  5  S    0.000012   0.000076  -0.007173  -0.004585  -0.004039
   23  C  5  X   -0.000058  -0.000057  -0.003099   0.002066   0.001812
   24  C  5  Y    0.000039   0.000017   0.003327   0.000722   0.000628
   25  C  5  Z    0.000043   0.000055  -0.001309   0.002289   0.001993
   26  C  6  S    0.000003  -0.000320   0.991147   0.018285   0.014246
   27  C  6  S    0.000016  -0.000057   0.036978   0.000809   0.000679
   28  C  6  X    0.000028   0.000049   0.000111   0.000049   0.000073
   29  C  6  Y    0.000008   0.000025   0.001553   0.000029   0.000065
   30  C  6  Z    0.000025   0.000117  -0.001324  -0.000040  -0.000014
   31  C  7  S    0.000007  -0.000412  -0.026303  -0.008766  -0.008869
   32  C  7  S    0.000017   0.000121  -0.007280  -0.000496  -0.000450
   33  C  7  X    0.000062  -0.000004   0.001773   0.000157   0.000128
   34  C  7  Y   -0.000050   0.000008  -0.002402  -0.000079  -0.000066
   35  C  7  Z   -0.000034   0.000015  -0.003281  -0.000028  -0.000011
   36  C  8  S   -0.000026  -0.000827  -0.001038  -0.000832  -0.000630
   37  C  8  S    0.000373  -0.006033   0.000374   0.000146   0.000167
   38  C  8  X   -0.000178   0.003718  -0.000004   0.000040   0.000006
   39  C  8  Y   -0.000091  -0.001886   0.000114   0.000034   0.000019
   40  C  8  Z   -0.000444   0.000796   0.000173   0.000063   0.000060
   41  C  9  S    0.000557   0.992508   0.000281   0.001852   0.002157
   42  C  9  S   -0.007140   0.033180   0.000097  -0.004412  -0.003886
   43  C  9  X    0.002990   0.000012  -0.000134   0.001222   0.001068
   44  C  9  Y    0.000772  -0.000407   0.000098  -0.001837  -0.001594
   45  C  9  Z    0.005504  -0.000378  -0.000055  -0.002351  -0.002053
   46  O 10  S    0.994274   0.000183   0.000006  -0.000009  -0.000020
   47  O 10  S    0.025897  -0.005835  -0.000059   0.000159   0.000201
   48  O 10  X    0.002638  -0.000867  -0.000013  -0.000030  -0.000035
   49  O 10  Y    0.000653  -0.000189  -0.000017   0.000100   0.000087
   50  O 10  Z    0.004816  -0.001578  -0.000033   0.000102   0.000138
   51  H 11  S   -0.000001  -0.000004   0.000334   0.000034  -0.000055
   52  H 12  S    0.000002  -0.000056   0.000126   0.000081  -0.000087
   53  H 13  S   -0.000002   0.000005  -0.000001  -0.000071   0.000072
   54  H 14  S    0.000016  -0.000480  -0.000012   0.004637  -0.005015
   55  H 15  S    0.000002  -0.000056  -0.000026   0.004646  -0.005020
   56  H 16  S   -0.000142  -0.000049   0.000034  -0.005184  -0.004537
   57  H 17  S   -0.000024  -0.000066   0.000075   0.000061   0.000055
   58  H 18  S   -0.000016  -0.000038  -0.006821  -0.000187  -0.000168
   59  H 19  S   -0.000024  -0.000061   0.000273   0.000025   0.000029
   60  H 20  S   -0.000214   0.000022  -0.000031  -0.000038  -0.000036

                      6          7          8          9         10
                  -11.0482   -11.0373   -11.0257   -11.0198   -11.0052
                     A          A          A          A          A   
    1  C  1  S   -0.000136   0.991896  -0.000561   0.002153  -0.008267
    2  C  1  S    0.000346   0.036407   0.000061   0.000196  -0.007916
    3  C  1  X   -0.000047  -0.001775   0.000031   0.000035   0.004409
    4  C  1  Y   -0.000249  -0.000469  -0.000055  -0.000167  -0.001653
    5  C  1  Z   -0.000047   0.000106  -0.000036   0.000065   0.000232
    6  C  2  S    0.000028   0.008940   0.000044  -0.007844   0.992136
    7  C  2  S   -0.000017  -0.007292   0.000016  -0.000753   0.035982
    8  C  2  X   -0.000007  -0.004352   0.000008  -0.000362   0.002027
    9  C  2  Y    0.000008   0.001588   0.000006  -0.000513   0.000809
   10  C  2  Z   -0.000030  -0.000315   0.000004   0.000235  -0.000213
   11  C  3  S    0.000756   0.002289  -0.000113   0.000704   0.002269
   12  C  3  S   -0.000000   0.000167   0.000020   0.000163  -0.005715
   13  C  3  X   -0.000009  -0.000137   0.000002  -0.000071  -0.001845
   14  C  3  Y   -0.000026   0.000043  -0.000009  -0.000091   0.000648
   15  C  3  Z    0.000011   0.000056  -0.000014  -0.000024  -0.003783
   16  C  4  S    0.011882   0.000567   0.000833   0.002909   0.000356
   17  C  4  S    0.000410   0.000038   0.000234  -0.005751   0.000084
   18  C  4  X   -0.000095   0.000004   0.000046  -0.002820  -0.000031
   19  C  4  Y    0.000107   0.000075   0.000010  -0.000851   0.000023
   20  C  4  Z   -0.000021  -0.000016  -0.000020  -0.003054  -0.000073
   21  C  5  S   -0.001444  -0.001841  -0.005430   0.992123   0.008088
   22  C  5  S   -0.000213  -0.000114  -0.000322   0.035933  -0.000209
   23  C  5  X   -0.000103   0.000058  -0.000065  -0.000224   0.000404
   24  C  5  Y    0.000117   0.000029   0.000132  -0.002201   0.000398
   25  C  5  Z    0.000177  -0.000029   0.000153   0.001247  -0.000321
   26  C  6  S    0.027571   0.021074   0.000666  -0.008024   0.000165
   27  C  6  S   -0.005013  -0.001917   0.000416  -0.007889   0.000150
   28  C  6  X   -0.001639   0.001614   0.000090   0.002942   0.000024
   29  C  6  Y    0.002085   0.001589  -0.000030  -0.003484  -0.000053
   30  C  6  Z    0.003296  -0.001242  -0.000098   0.001100   0.000031
   31  C  7  S    0.991670  -0.000464  -0.015815   0.001676  -0.000030
   32  C  7  S    0.035723   0.000090  -0.008430   0.000122  -0.000012
   33  C  7  X   -0.000654  -0.000114   0.002023   0.000118  -0.000024
   34  C  7  Y   -0.000025  -0.000174   0.000267  -0.000177  -0.000021
   35  C  7  Z   -0.001065   0.000093   0.004165   0.000176  -0.000016
   36  C  8  S    0.016388   0.000509   0.992027   0.005520  -0.000007
   37  C  8  S   -0.007118   0.000059   0.036415   0.000153  -0.000012
   38  C  8  X   -0.001941  -0.000011   0.000280   0.000053  -0.000001
   39  C  8  Y   -0.000296  -0.000014   0.000375  -0.000161  -0.000002
   40  C  8  Z   -0.004049   0.000026   0.001521  -0.000078  -0.000002
   41  C  9  S    0.000541  -0.000031   0.001809   0.000393  -0.000015
   42  C  9  S    0.000037   0.000009  -0.006247   0.000068  -0.000005
   43  C  9  X   -0.000040  -0.000010  -0.003737  -0.000115   0.000005
   44  C  9  Y   -0.000071  -0.000005   0.002001  -0.000055  -0.000032
   45  C  9  Z   -0.000238   0.000012  -0.000618  -0.000048   0.000018
   46  O 10  S    0.000014   0.000000  -0.000019   0.000009   0.000000
   47  O 10  S   -0.000127  -0.000001   0.000307  -0.000078   0.000003
   48  O 10  X   -0.000051  -0.000000   0.000165   0.000008   0.000004
   49  O 10  Y    0.000003  -0.000002  -0.000044  -0.000003   0.000003
   50  O 10  Z   -0.000049  -0.000001   0.000110  -0.000048  -0.000001
   51  H 11  S   -0.000021  -0.006804  -0.000003  -0.000048   0.000152
   52  H 12  S   -0.001056  -0.006803  -0.000169  -0.000034   0.000026
   53  H 13  S    0.000005   0.000053  -0.000002   0.000085  -0.006908
   54  H 14  S    0.000001   0.000006  -0.000031  -0.000067  -0.000088
   55  H 15  S   -0.000004  -0.000116  -0.000004  -0.000019   0.000039
   56  H 16  S   -0.000135  -0.000028  -0.000065   0.000017  -0.000040
   57  H 17  S   -0.000084   0.000012  -0.000015  -0.006871  -0.000085
   58  H 18  S   -0.000124  -0.000029  -0.000084   0.000165  -0.000027
   59  H 19  S   -0.006826   0.000019   0.000215  -0.000118   0.000001
   60  H 20  S    0.000022  -0.000003  -0.006839  -0.000095   0.000001

                     11         12         13         14         15
                   -1.3066    -1.0873    -1.0081    -0.9578    -0.9335
                     A          A          A          A          A   
    1  C  1  S   -0.000720  -0.055647  -0.125614   0.070740  -0.055481
    2  C  1  S    0.001741   0.146306   0.336636  -0.193175   0.157652
    3  C  1  X   -0.000114  -0.012352  -0.088556   0.045650   0.028035
    4  C  1  Y    0.000271   0.018443   0.023593   0.003952   0.007886
    5  C  1  Z   -0.000487  -0.016600  -0.006188  -0.001256  -0.000553
    6  C  2  S   -0.000831  -0.047827  -0.148078   0.068205   0.015649
    7  C  2  S    0.001849   0.119876   0.386644  -0.181634  -0.044709
    8  C  2  X    0.000230   0.027477   0.059535  -0.038207   0.058295
    9  C  2  Y    0.000192  -0.000379  -0.009535   0.017715  -0.019536
   10  C  2  Z   -0.000744  -0.014341  -0.030080  -0.004823   0.045870
   11  C  3  S   -0.002618  -0.035698  -0.096424   0.013406   0.089519
   12  C  3  S    0.006679   0.098233   0.269194  -0.034859  -0.261602
   13  C  3  X    0.001514   0.017426   0.021198   0.002782  -0.001320
   14  C  3  Y    0.000764   0.002263  -0.017632   0.026737  -0.006462
   15  C  3  Z   -0.001724   0.010732   0.057143  -0.038295   0.007195
   16  C  4  S   -0.021876  -0.073478  -0.012209  -0.107589   0.114583
   17  C  4  S    0.055376   0.197599   0.037052   0.305754  -0.332731
   18  C  4  X    0.010770   0.043340  -0.022692   0.044849  -0.002464
   19  C  4  Y   -0.014412  -0.007314  -0.004216   0.030172   0.023702
   20  C  4  Z   -0.022690   0.020437   0.019854   0.028561   0.046192
   21  C  5  S   -0.005112  -0.107711  -0.002151  -0.130051  -0.032644
   22  C  5  S    0.011790   0.272986   0.006420   0.353436   0.085284
   23  C  5  X   -0.001714   0.020495  -0.021226  -0.017564   0.098518
   24  C  5  Y   -0.002917  -0.068789   0.002050  -0.032545  -0.044998
   25  C  5  Z   -0.003814  -0.005593   0.008512  -0.014370   0.083127
   26  C  6  S   -0.003587  -0.127402   0.017865  -0.046143  -0.124742
   27  C  6  S    0.008519   0.332437  -0.047030   0.122864   0.350416
   28  C  6  X   -0.001097  -0.027007  -0.033975  -0.066186   0.006591
   29  C  6  Y    0.000238   0.017282   0.005365   0.102512   0.018646
   30  C  6  Z   -0.003088  -0.055490   0.047597   0.007611   0.008561
   31  C  7  S   -0.006721  -0.110974   0.085963   0.098637  -0.023723
   32  C  7  S    0.016024   0.283863  -0.228168  -0.268446   0.067996
   33  C  7  X   -0.004810  -0.050735   0.025308   0.014755   0.009802
   34  C  7  Y    0.000699   0.027662  -0.004043   0.031589   0.032074
   35  C  7  Z   -0.005672  -0.002372   0.048447   0.089193   0.112673
   36  C  8  S   -0.024618  -0.082901   0.088337   0.116218   0.073717
   37  C  8  S    0.058702   0.210212  -0.231634  -0.311889  -0.201026
   38  C  8  X   -0.026757   0.005311  -0.013402  -0.034756   0.041629
   39  C  8  Y    0.013763   0.019028  -0.012191   0.006600  -0.021987
   40  C  8  Z   -0.004460   0.062291  -0.049167  -0.053514   0.006950
   41  C  9  S   -0.128063  -0.035467   0.022812  -0.000740   0.078906
   42  C  9  S    0.297764   0.096907  -0.064261   0.001533  -0.229891
   43  C  9  X   -0.071197   0.045127  -0.057944  -0.079938  -0.044342
   44  C  9  Y   -0.019170   0.005838   0.018780   0.069342  -0.025039
   45  C  9  Z   -0.131760   0.078091  -0.022860   0.037936  -0.128992
[...]
 19   H            X  0.00317296  0.00039093  0.00438794  0.09317494  0.02196870
                   Y -0.03459242  0.00114705  0.00353589 -0.11044825 -0.02305938
                   Z -0.05706248  0.00231021  0.02158832 -0.11293987 -0.02115296
 20   H            X -0.00406838  0.00001641  0.00907322  0.09634671  0.08190110
                   Y  0.01187487  0.00067404 -0.01817888 -0.09553632 -0.04627138
                   Z  0.01349980 -0.00025772 -0.00184186 -0.03076181  0.03362991

 TRANS. SAYVETZ    X  0.00000113  0.00000047  0.00000218  0.00000141  0.00000057
                   Y -0.00000150  0.00000006 -0.00000131 -0.00000129 -0.00000234
                   Z  0.00000033  0.00000077 -0.00000029 -0.00000068  0.00000158
               TOTAL  0.00000191  0.00000091  0.00000256  0.00000203  0.00000288

   ROT. SAYVETZ    X  0.00081583  0.00430632  0.00413697 -0.00092028 -0.00112311
                   Y  0.00269064 -0.00156485 -0.00966618  0.00146739  0.00116233
                   Z  0.00494221  0.00252194 -0.00906235  0.00099178  0.00031198
               TOTAL  0.00568599  0.00523004  0.01388077  0.00199594  0.00164613

                           51          52          53          54          55
       FREQUENCY:      3634.32     3638.68     3689.47     3697.29     3698.99  
        SYMMETRY:         A           A           A           A           A   
    REDUCED MASS:      1.06235     1.06453     1.09084     1.09394     1.09617
    IR INTENSITY:      0.02492     0.10678     0.12787     0.07677     0.09923

  1   C            X -0.03713084 -0.02499651 -0.00464723 -0.00107015 -0.00837444
                   Y  0.03670119  0.02590228  0.00425148  0.00194847  0.00800352
                   Z -0.02073266 -0.01417577 -0.00096987  0.00036574  0.00086801
  2   C            X -0.00167495  0.00603951  0.00654307  0.00552011  0.03336892
                   Y  0.00687705 -0.00312169 -0.00857598 -0.00757951 -0.04439280
                   Z  0.00716117  0.00333653 -0.01127123 -0.01035976 -0.05827702
  3   C            X  0.02331440 -0.03610186  0.00250310  0.00140680  0.00246082
                   Y  0.00949382 -0.01592389  0.00239768  0.00023181  0.00457534
                   Z  0.02718407 -0.04160055  0.00528362  0.00299202  0.01016643
  4   C            X -0.00226037  0.00125405  0.03927178 -0.03658450 -0.00502416
                   Y  0.00261327  0.00028015 -0.03925072  0.03472807  0.00406102
                   Z -0.00066119  0.00049762  0.01396781 -0.01485042 -0.00190085
  5   C            X  0.00074219 -0.00060813 -0.00969531  0.00220953  0.00012376
                   Y -0.00283561  0.00077353  0.03325812  0.00493807 -0.00196622
                   Z -0.00246088  0.00016532  0.02648928  0.00795205 -0.00196200
  6   C            X  0.00215051 -0.00041271 -0.02297957 -0.03783594  0.01246822
                   Y  0.00067040 -0.00123896 -0.00875859 -0.01120799  0.00289747
                   Z  0.00253310 -0.00012825 -0.02654186 -0.04051282  0.01342324
  7   C            X -0.00077807  0.00000348  0.00772859  0.02170359 -0.01011268
                   Y -0.00000883 -0.00007894 -0.00445919 -0.01289965  0.00613054
                   Z  0.00000077  0.00014143  0.00302945  0.00723747 -0.00311998
  8   C            X  0.00017605 -0.00000922 -0.00211229 -0.00629934  0.00283262
                   Y -0.00037977  0.00006301  0.00258678  0.00831006 -0.00374120
                   Z -0.00041052  0.00018980  0.00294708  0.00953289 -0.00422687
  9   C            X -0.00011025  0.00011340 -0.00068117  0.00122382 -0.00009186
                   Y -0.00039051  0.00014952  0.00074938 -0.00135323  0.00008992
                   Z -0.00003838 -0.00014683  0.00083157 -0.00118758 -0.00003701
 10   O            X  0.00000403  0.00001335  0.00003603 -0.00007553  0.00000467
                   Y  0.00002351  0.00002347 -0.00005667  0.00015856 -0.00001944
                   Z  0.00001525  0.00000994 -0.00004357  0.00021952  0.00001016
 11   H            X  0.20958079  0.14151204  0.01811330  0.00411122  0.01638578
                   Y  0.00957307  0.00698383  0.00177238  0.00021523  0.00119712
                   Z  0.53322332  0.35994479  0.04177259  0.00884063  0.03669087
 12   H            X  0.17639854  0.12017160  0.01990691  0.00726444  0.02852884
                   Y -0.42214488 -0.28950308 -0.04351315 -0.01831494 -0.07344707
                   Z -0.30273202 -0.20591894 -0.03345640 -0.01333153 -0.05392726
 13   H            X  0.06328391 -0.00990488 -0.06853560 -0.06224834 -0.35964866
                   Y -0.09086919  0.01653101  0.09885370  0.08923100  0.51551168
                   Z -0.11252980  0.02303299  0.12298611  0.11145816  0.64393712
 14   H            X  0.07908154 -0.11942784  0.01468500  0.00531135  0.02164969
                   Y -0.26598087  0.40888771 -0.04289063 -0.01623066 -0.06987693
                   Z -0.24860059  0.38122376 -0.04235680 -0.01531130 -0.06238616
 15   H            X -0.33872547  0.51254332 -0.03702864 -0.01489671 -0.03029303
                   Y  0.14755755 -0.22394367  0.01766606  0.00748361  0.01435057
                   Z -0.03882286  0.05853730 -0.00532963 -0.00228362 -0.00515956
 16   H            X  0.02700719 -0.00350382 -0.44133642  0.39954204  0.05032684
                   Y -0.03000731  0.00392344  0.44695764 -0.40242355 -0.04974736
                   Z  0.01168540 -0.00157142 -0.17180456  0.15605090  0.01920381
 17   H            X -0.00938522  0.00200676  0.10048793  0.01710702 -0.00716247
                   Y  0.03450574 -0.00719658 -0.38763935 -0.06965579  0.02768119
                   Z  0.02837278 -0.00584643 -0.31339866 -0.05778439  0.02260275
 18   H            X -0.02719327  0.00842967  0.27469236  0.42336780 -0.13646314
                   Y -0.01005097  0.00334725  0.09291682  0.14113862 -0.04468349
                   Z -0.02745755  0.00832129  0.29727396  0.45758254 -0.14819212
 19   H            X  0.00771063 -0.00111102 -0.08895824 -0.24805213  0.11464739
                   Y -0.00526081  0.00056513  0.05671775  0.15714450 -0.07273754
                   Z  0.00174032 -0.00046562 -0.02274468 -0.06262848  0.02896270
 20   H            X -0.00241809  0.00059032  0.01771296  0.06177183 -0.02728360
                   Y  0.00432776 -0.00099414 -0.02798799 -0.09490301  0.04190075
                   Z  0.00514467 -0.00158546 -0.03615734 -0.12372919  0.05470054

 TRANS. SAYVETZ    X -0.00000076  0.00000035 -0.00000138 -0.00000014 -0.00000005
                   Y  0.00000126 -0.00000045 -0.00000018  0.00000017 -0.00000054
                   Z -0.00000015  0.00000049  0.00000071  0.00000057  0.00000034
               TOTAL  0.00000148  0.00000076  0.00000156  0.00000061  0.00000064

   ROT. SAYVETZ    X -0.00035241  0.00045920 -0.00043268 -0.00036559 -0.00004413
                   Y -0.00002757 -0.00080136  0.00000016  0.00084512 -0.00006355
                   Z -0.00036375 -0.00063816 -0.00060597  0.00081851 -0.00012715
               TOTAL  0.00050721  0.00112263  0.00074458  0.00123201  0.00014884

                           56          57          58          59          60
       FREQUENCY:      3704.98     3715.86     3736.10     3785.86     3787.60  
        SYMMETRY:         A           A           A           A           A   
    REDUCED MASS:      1.09179     1.10090     1.10598     1.11705     1.11746
    IR INTENSITY:      0.49472     0.07554     0.06445     0.00049     0.01713

  1   C            X  0.00097807  0.00010098 -0.00001019 -0.00205809  0.00174024
                   Y -0.00020112  0.00115110 -0.00021559 -0.03801245  0.02403984
                   Z  0.00050565  0.00116337 -0.00028131 -0.06962110  0.04491737
  2   C            X -0.00338443  0.00290548 -0.00003526  0.00113051 -0.00209782
                   Y  0.00421417 -0.00351628  0.00003570 -0.00072067  0.00262112
                   Z  0.00547368 -0.00495323  0.00008316 -0.00007889  0.00404997
  3   C            X  0.00002127 -0.00058084  0.00003522 -0.03421249 -0.05378596
                   Y -0.00067572  0.00127161 -0.00023137  0.03393715  0.05260432
                   Z -0.00043400  0.00056918 -0.00020365  0.01657579  0.02525420
  4   C            X -0.01110396  0.02193847 -0.00222275 -0.00010447 -0.00017723
                   Y  0.00995228 -0.01734211  0.00180050 -0.00005041  0.00038139
                   Z -0.00500357  0.01054277 -0.00086660 -0.00016520 -0.00041721
  5   C            X -0.00180536  0.01259618 -0.00108173  0.00016398 -0.00011811
                   Y  0.01378042 -0.05509855  0.00461883 -0.00020579  0.00058060
                   Z  0.01243769 -0.04147121  0.00348388 -0.00004836  0.00039143
  6   C            X -0.01561410 -0.02814463  0.00333630 -0.00037011  0.00066362
                   Y -0.00715777 -0.00468258  0.00196836  0.00009922  0.00012970
                   Z -0.01986610 -0.02931532  0.00560192 -0.00003828  0.00028914
  7   C            X -0.05262859 -0.00308921  0.04098656 -0.00024244  0.00030953
                   Y  0.03356871  0.00280089 -0.02281198  0.00035522 -0.00031142
                   Z -0.01234708  0.00121491  0.01697872 -0.00021415  0.00029148
  8   C            X  0.01708832  0.00400696  0.02159956  0.00003902 -0.00014433
                   Y -0.02340410 -0.00655053 -0.03959971  0.00001117 -0.00006717
                   Z -0.02757047 -0.00898650 -0.05877811 -0.00008330 -0.00005632
  9   C            X -0.00104129 -0.00052642 -0.00198029  0.00000024 -0.00008178
                   Y  0.00082386  0.00071332  0.00122236 -0.00009566 -0.00014589
                   Z  0.00010984  0.00087875 -0.00054506  0.00006777  0.00004123
 10   O            X  0.00009748 -0.00000568  0.00026222 -0.00001711 -0.00001730
                   Y -0.00010506 -0.00006843 -0.00010770 -0.00000728 -0.00002137
                   Z -0.00009691 -0.00016967  0.00020717 -0.00000130  0.00000300
 11   H            X -0.00293814 -0.00254422  0.00053346  0.20187630 -0.12975461
                   Y -0.00027280 -0.00028590  0.00004189  0.00574493 -0.00402033
                   Z -0.00678121 -0.00588871  0.00172378  0.51137105 -0.32965739
 12   H            X -0.00085089  0.00370763 -0.00074335 -0.18255153  0.11657812
                   Y  0.00336053 -0.01005085  0.00293846  0.44172664 -0.28095769
                   Z  0.00196929 -0.00755400  0.00194168  0.31007100 -0.19743029
 13   H            X  0.03449093 -0.03016553  0.00023318 -0.00827076  0.02601114
                   Y -0.04929015  0.04326390 -0.00050942  0.00783451 -0.03525373
                   Z -0.06181049  0.05400598 -0.00062406  0.00627746 -0.04716225
 14   H            X -0.00185494  0.00300100 -0.00096516  0.07252426  0.11218775
                   Y  0.00531041 -0.00923319  0.00225473 -0.25647867 -0.39536289
                   Z  0.00455875 -0.00798461  0.00232681 -0.23782069 -0.36757214
 15   H            X  0.00038339  0.00496693  0.00008917  0.33134899  0.51713779
                   Y -0.00003624 -0.00241371 -0.00007315 -0.14223482 -0.22218255
                   Z -0.00010346  0.00080541 -0.00003755  0.03951041  0.06101935
 16   H            X  0.11668453 -0.21381553  0.01911521  0.00235789  0.00599096
                   Y -0.11756369  0.21346437 -0.01919050 -0.00262617 -0.00670190
                   Z  0.04526050 -0.08375141  0.00758914  0.00119837  0.00281282
 17   H            X  0.04007609 -0.14905936  0.01142910 -0.00051907  0.00150560
                   Y -0.16132229  0.58557573 -0.04656482  0.00163759 -0.00572173
                   Z -0.13030702  0.47012373 -0.03726605  0.00122138 -0.00472888
 18   H            X  0.19255069  0.28838643 -0.04396927  0.00492119 -0.00633416
                   Y  0.06617687  0.09436618 -0.01534001  0.00182256 -0.00230488
                   Z  0.21074585  0.31252885 -0.04923695  0.00461352 -0.00643940
 19   H            X  0.59680622  0.03583354 -0.42185961  0.00355223 -0.00388045
                   Y -0.37765584 -0.02289078  0.26589388 -0.00197751  0.00214561
                   Z  0.14622152  0.00746602 -0.10543930  0.00100090 -0.00100760
 20   H            X -0.17330224 -0.04984687 -0.28990425 -0.00044355  0.00013205
                   Y  0.26503076  0.07675739  0.44585523  0.00041697  0.00014752
                   Z  0.34776592  0.10067386  0.58684228  0.00085141 -0.00005169

 TRANS. SAYVETZ    X -0.00000003 -0.00000035  0.00000031  0.00000002 -0.00000005
                   Y -0.00000014 -0.00000004 -0.00000004 -0.00000003  0.00000014
                   Z -0.00000014  0.00000015  0.00000025 -0.00000005  0.00000001
               TOTAL  0.00000020  0.00000038  0.00000040  0.00000006  0.00000014

   ROT. SAYVETZ    X -0.00018030 -0.00028206  0.00006336  0.00037869 -0.00098971
                   Y  0.00032921  0.00015971 -0.00004016 -0.00053924  0.00017100
                   Z  0.00026079 -0.00017189  0.00003077 -0.00031486 -0.00100985
               TOTAL  0.00045705  0.00036689  0.00008108  0.00073030  0.00142428

 REFERENCE ON SAYVETZ CONDITIONS - A. SAYVETZ, J.CHEM.PHYS., 7, 383-389(1939).

 NOTE - THE MODES J,K ARE ORTHONORMALIZED ACCORDING TO
 SUM ON I   M(I) * (X(I,J)*X(I,K) + Y(I,J)*Y(I,K) + Z(I,J)*Z(I,K)) = DELTA(J,K)

  MODE FREQ(CM**-1)  SYMMETRY  RED. MASS  IR INTENS.
     1    1104.998    A        9.337779    0.024501
     2       0.128    A        6.539443    0.000116
     3       0.014    A        6.701888    0.000000
     4       0.005    A        6.703908    0.000000
     5       1.438    A        4.898639    0.014612
     6      29.474    A        5.892339    0.016190
     7      35.930    A        4.148033    0.001141
     8     110.737    A        4.133479    0.028031
     9     202.457    A        3.551877    0.015145
    10     257.731    A        4.163872    0.029881
    11     373.625    A        5.303811    0.031192
    12     410.140    A        5.702376    0.169022
    13     456.134    A        1.990688    0.060360
    14     487.179    A        3.523260    0.073586
    15     497.138    A        4.520412    0.137212
    16     536.879    A        1.988662    0.234108
    17     570.916    A        2.521887    0.186714
    18     603.779    A        5.426477    0.018122
    19     674.658    A        5.938186    0.036266
    20     837.143    A        3.394047    0.044699
    21     852.864    A        4.080457    0.044578
    22     924.920    A        1.631600    1.209205
    23     935.617    A        1.775156    0.148997
    24     971.323    A        1.615321    0.877171
    25     995.131    A        1.365178    0.224857
    26    1023.975    A        1.418930    0.043285
    27    1085.018    A        1.839537    0.188677
    28    1122.437    A        2.888258    0.002573
    29    1171.598    A        1.971826    0.073666
    30    1201.756    A        1.125333    0.032705
    31    1209.685    A        1.271854    0.004290
    32    1228.751    A        1.503676    0.137706
    33    1260.355    A        1.270396    0.221531
    34    1278.543    A        1.151146    0.415637
    35    1305.210    A        1.232801    0.016384
    36    1328.609    A        1.260958    0.107399
    37    1355.723    A        1.266807    0.029939
    38    1358.667    A        1.122828    0.019607
    39    1419.246    A        1.832491    0.645157
    40    1471.328    A        1.330544    0.101059
    41    1484.825    A        1.781795    0.004816
    42    1600.519    A        1.604121    0.151433
    43    1639.641    A        1.714715    0.150469
    44    1668.187    A        1.506025    0.060398
    45    1727.131    A        2.568558    0.327513
    46    1758.621    A        1.891793    0.049995
    47    1811.316    A        1.277678    0.196584
    48    1863.195    A        2.593095    0.054746
    49    2004.915    A        7.008840    0.061436
    50    2075.433    A       10.552672    1.845450
    51    3634.323    A        1.062350    0.024922
    52    3638.677    A        1.064534    0.106783
    53    3689.471    A        1.090841    0.127869
    54    3697.289    A        1.093941    0.076774
    55    3698.995    A        1.096174    0.099234
    56    3704.978    A        1.091795    0.494721
    57    3715.858    A        1.100902    0.075545
    58    3736.103    A        1.105984    0.064446
    59    3785.855    A        1.117052    0.000492
    60    3787.605    A        1.117464    0.017129

     -------------------------------
     THERMOCHEMISTRY AT T=  298.15 K
     -------------------------------

 USING IDEAL GAS, RIGID ROTOR, HARMONIC NORMAL MODE APPROXIMATIONS.
 P=  1.01325E+05 PASCAL.
 ALL FREQUENCIES ARE SCALED BY   1.00000
 THE MOMENTS OF INERTIA ARE (IN AMU*BOHR**2)
            865.21170          1321.62612          1660.69352
 THE ROTATIONAL SYMMETRY NUMBER IS  1.0
 THE ROTATIONAL CONSTANTS ARE (IN GHZ)
      2.08399     1.36430     1.08574
   1 IMAGINARY FREQUENCY VIBRATION(S) IS(ARE) EXCLUDED
     FROM THE FOLLOWING THERMOCHEMICAL ANALYSIS.
      8 -     60 VIBRATIONAL MODES ARE USED IN THERMOCHEMISTRY.
 THE HARMONIC ZERO POINT ENERGY IS (SCALED BY   1.000)
        0.191918 HARTREE/MOLECULE    42121.104662 CM**-1/MOLECULE 
      120.430402 KCAL/MOL              503.880803 KJ/MOL

               Q               LN Q
 ELEC.     1.00000E+00       0.000000
 TRANS.    6.10192E+07      17.926699
 ROT.      4.93289E+05      13.108851
 VIB.      1.47799E+01       2.693271
 TOT.      4.44878E+14      33.728821

              E         H         G         CV        CP        S
           KJ/MOL    KJ/MOL    KJ/MOL   J/MOL-K   J/MOL-K   J/MOL-K
 ELEC.      0.000     0.000     0.000     0.000     0.000     0.000
 TRANS.     3.718     6.197   -44.439    12.472    20.786   169.836
 ROT.       3.718     3.718   -32.496    12.472    12.472   121.464
 VIB.     515.200   515.200   497.204    94.218    94.218    60.356
 TOTAL    522.636   525.115   420.269   119.161   127.476   351.656
 VIB. THERMAL CORRECTION E(T)-E(0) = H(T)-H(0) =     11318.714 J/MOL

              E         H         G         CV        CP        S
         KCAL/MOL  KCAL/MOL  KCAL/MOL CAL/MOL-K CAL/MOL-K CAL/MOL-K
 ELEC.      0.000     0.000     0.000     0.000     0.000     0.000
 TRANS.     0.889     1.481   -10.621     2.981     4.968    40.592
 ROT.       0.889     0.889    -7.767     2.981     2.981    29.031
 VIB.     123.136   123.136   118.835    22.519    22.519    14.425
 TOTAL    124.913   125.506   100.447    28.480    30.467    84.048
 VIB. THERMAL CORRECTION E(T)-E(0) = H(T)-H(0) =      2705.238 CAL/MOL

     *******************************************************
     * THIS IS NOT A STATIONARY POINT ON THE MOLECULAR PES *
     *     THE VIBRATIONAL ANALYSIS IS NOT VALID !!!       *
     *******************************************************
 ......END OF NORMAL COORDINATE ANALYSIS......
 STEP CPU TIME =     0.01 TOTAL CPU TIME =        144.3 (      2.4 MIN)
 TOTAL WALL CLOCK TIME=        145.2 SECONDS, CPU UTILIZATION IS    99.44%
               580000  WORDS OF DYNAMIC MEMORY USED
 EXECUTION OF GAMESS TERMINATED NORMALLY Thu Nov  4 22:59:00 2021
 DDI: 263640 bytes (0.3 MB / 0 MWords) used by master data server.

 ----------------------------------------
 CPU timing information for all processes
 ========================================
 0: 141.690 + 2.666 = 144.356
 ----------------------------------------
 ddikick.x: exited gracefully.
----- accounting info -----
Files used on the master node chemcompute-node-0.novalocal were:
-rw-r--r--. 1 chemcomp chemcomp     1344 Nov  4 22:56 /scratch/300976/335918.F05
-rw-rw-r--. 1 chemcomp chemcomp 17821584 Nov  4 22:58 /scratch/300976/335918.F08
-rw-rw-r--. 1 chemcomp chemcomp 85196800 Nov  4 22:59 /scratch/300976/335918.F10
-rw-rw-r--. 1 chemcomp chemcomp   878880 Nov  4 22:58 /scratch/300976/335918.F18
Thu Nov  4 22:59:04 UTC 2021
0.132u 0.111s 2:30.00 0.1%	0+0k 8+216io 0pf+0w
Finishing Up...
Looking for IR data...
Looking for Raman data...
vibramans not found
Looking for thermodynamics data...
Looking for UV-Vis data...
300976
