----- GAMESS execution script 'rungms' -----
This job is running on host chemcompute-node-0.novalocal
under operating system Linux at Sat Nov 13 14:36:27 UTC 2021
SLURM has assigned the following compute nodes to this run:
chemcompute-node-0
Available scratch disk space (Kbyte units) at beginning of the job is
Filesystem     1K-blocks     Used Available Use% Mounted on
/dev/sda1       62903276 21489440  41413836  35% /
GAMESS temporary binary files will be written to /scratch/305962
GAMESS supplementary output files will be written to /data/slurm/341863
Copying input file 341863.inp to your run's scratch directory...
The generated host list is
chemcompute-node-0.novalocal

 Distributed Data Interface kickoff program.
 Initiating 1 compute processes on 1 nodes to run the following command:
 /data/gamess-2019R1-ddi/gamess.00.x 341863 

          ******************************************************
          *         GAMESS VERSION = 30 JUN 2019 (R1)          *
          *             FROM IOWA STATE UNIVERSITY             *
          * M.W.SCHMIDT, K.K.BALDRIDGE, J.A.BOATZ, S.T.ELBERT, *
          *   M.S.GORDON, J.H.JENSEN, S.KOSEKI, N.MATSUNAGA,   *
          *          K.A.NGUYEN, S.J.SU, T.L.WINDUS,           *
          *       TOGETHER WITH M.DUPUIS, J.A.MONTGOMERY       *
          *         J.COMPUT.CHEM.  14, 1347-1363(1993)        *
          **************** 64 BIT LINUX VERSION ****************

  SINCE 1993, STUDENTS AND POSTDOCS WORKING AT IOWA STATE UNIVERSITY
  AND ALSO IN THEIR VARIOUS JOBS AFTER LEAVING ISU HAVE MADE IMPORTANT
  CONTRIBUTIONS TO THE CODE:
     IVANA ADAMOVIC, CHRISTINE AIKENS, YURI ALEXEEV, POOJA ARORA,
     ANDREY ASADCHEV, ROB BELL, PRADIPTA BANDYOPADHYAY, JONATHAN BENTZ,
     COLLEEN BERTONI, BRETT BODE, KURT BRORSEN, CALEB CARLIN, GALINA CHABAN,
     WEI CHEN, CHEOL HO CHOI, PAUL DAY, ALBERT DEFUSCO, NUWAN DESILVA,
     TIM DUDLEY, DMITRI FEDOROV, ALEX FINDLATER, GRAHAM FLETCHER, 
     MARK FREITAG, KURT GLAESEMANN, ANASTASIA GUNINA,
     DAN KEMP, GRANT MERRILL, NORIYUKI MINEZAWA, JONATHAN MULLIN,
     TAKESHI NAGATA, SEAN NEDD, HEATHER NETZLOFF, BOSILJKA NJEGIC, RYAN OLSON,
     MIKE PAK, BUU PHAM,
     SPENCER PRUITT, LUKE ROSKOP, JIM SHOEMAKER, LYUDMILA SLIPCHENKO,
     TONY SMITH, SAROM SOK LEANG, JIE SONG, TETSUYA TAKETSUGU, SIMON WEBB,
     PENG XU, SOOHAENG YOO, FEDERICO ZAHARIEV

  ADDITIONAL CODE HAS BEEN PROVIDED BY COLLABORATORS IN OTHER GROUPS:
     IOWA STATE UNIVERSITY:
          JOE IVANIC, AARON WEST, LAIMUTIS BYTAUTAS, KLAUS RUEDENBERG
     UNIVERSITY OF TOKYO: KIMIHIKO HIRAO, TAKAHITO NAKAJIMA,
          TAKAO TSUNEDA, MUNEAKI KAMIYA, SUSUMU YANAGISAWA,
          KIYOSHI YAGI, MAHITO CHIBA, SEIKEN TOKURA, NAOAKI KAWAKAMI
     UNIVERSITY OF AARHUS: FRANK JENSEN
     UNIVERSITY OF IOWA: VISVALDAS KAIRYS, HUI LI
     NATIONAL INST. OF STANDARDS AND TECHNOLOGY: WALT STEVENS, DAVID GARMER
     UNIVERSITY OF PISA: BENEDETTA MENNUCCI, JACOPO TOMASI
     UNIVERSITY OF MEMPHIS: HENRY KURTZ, PRAKASHAN KORAMBATH
     UNIVERSITY OF ALBERTA: TOBY ZENG, MARIUSZ KLOBUKOWSKI
     UNIVERSITY OF NEW ENGLAND: MARK SPACKMAN
     MIE UNIVERSITY: HIROAKI UMEDA
     NAT. INST. OF ADVANCED INDUSTRIAL SCIENCE AND TECHNOLOGY: KAZUO KITAURA
     MICHIGAN STATE UNIVERSITY:
          KAROL KOWALSKI, MARTA WLOCH, JEFFREY GOUR, JESSE LUTZ,
          WEI LI, JUN SHEN, J. EMILIANO DEUSTUA, PIOTR PIECUCH
     UNIVERSITY OF MINNESOTA:
          YINAN SHU
     UNIVERSITY OF SILESIA: MONIKA MUSIAL, STANISLAW KUCHARSKI
     FACULTES UNIVERSITAIRES NOTRE-DAME DE LA PAIX:
          OLIVIER QUINET, BENOIT CHAMPAGNE
     UNIVERSITY OF CALIFORNIA - SANTA BARBARA: BERNARD KIRTMAN
     INSTITUTE FOR MOLECULAR SCIENCE:
          KAZUYA ISHIMURA, MICHIO KATOUDA, AND SHIGERU NAGASE
     UNIVERSITY OF NOTRE DAME: ANNA POMOGAEVA, DAN CHIPMAN
     KYUSHU UNIVERSITY:
          HARUYUKI NAKANO,
          FENG LONG GU, JACEK KORCHOWIEC, MARCIN MAKOWSKI, AND YURIKO AOKI,
          HIROTOSHI MORI AND EISAKU MIYOSHI
     PENNSYLVANIA STATE UNIVERSITY:
          TZVETELIN IORDANOV, CHET SWALINA, JONATHAN SKONE,
          SHARON HAMMES-SCHIFFER
     WASEDA UNIVERSITY:
          MASATO KOBAYASHI, TOMOKO AKAMA, TSUGUKI TOUMA,
          TAKESHI YOSHIKAWA, YASUHIRO IKABATA, JUNJI SEINO,
          YUYA NAKAJIMA, HIROMI NAKAI
     NANJING UNIVERSITY: SHUHUA LI
     UNIVERSITY OF NEBRASKA:
          PEIFENG SU, DEJUN SI, NANDUN THELLAMUREGE, YALI WANG, HUI LI
     UNIVERSITY OF ZURICH: ROBERTO PEVERATI, KIM BALDRIDGE
     N. COPERNICUS UNIVERSITY AND JACKSON STATE UNIVERSITY:
          MARIA BARYSZ
     UNIVERSITY OF COPENHAGEN: Jimmy Kromann, CASPER STEINMANN
     TOKYO INSTITUTE OF TECHNOLOGY: HIROYA NAKATA
     NAGOYA UNIVERSITY: YOSHIO NISHIMOTO, STEPHAN IRLE
     MOSCOW STATE UNIVERSITY: VLADIMIR MIRONOV
     A.N.NESMEYANOV INSTITUTE OF ORGANOELEMENT COMPOUNDS OF RUSSIAN ACADEMY OF SCIENCES:
          IGOR S. GERASIMOV

 EXECUTION OF GAMESS BEGUN Sat Nov 13 14:36:27 2021

            ECHO OF THE FIRST FEW INPUT CARDS -
 INPUT CARD>!File created by the GAMESS Input Deck Generator Plugin for Avogadro            
 INPUT CARD> $BASIS GBASIS=STO NGAUSS=3 $END                                                
 INPUT CARD> $CONTRL SCFTYP=RHF RUNTYP=OPTIMIZE NZVAR=1 mult=1  ICHARG=0 $END               
 INPUT CARD> $STATPT hssend=.t. OPTTOL=0.0005 NSTEP=50 $END                                 
 INPUT CARD> $STATPT HESS=calc ihrep=5 $END                                                 
 INPUT CARD> $FORCE NVIB=2 $END                                                             
 INPUT CARD> $ZMAT DLC=.t. auto=.t. nonvdw(1)=6,17,1,17,19,9 $END                           
 INPUT CARD> $ZMAT IFZMAT(1)=1,6,17,1,17,19,1,9,19 fvalue(1)=2.08,1.98,2.01 $END            
 INPUT CARD>                                                                                
 INPUT CARD> $DATA                                                                          
 INPUT CARD>Title                                                                           
 INPUT CARD>C1                                                                              
 INPUT CARD>C     6.0     3.29742    -4.87626     0.00151                                   
 INPUT CARD>C     6.0     2.24228    -3.77170     0.05488                                   
 INPUT CARD>C     6.0     2.52245    -6.06799     0.53122                                   
 INPUT CARD>H     1.0     4.24133    -4.64390     0.53849                                   
 INPUT CARD>H     1.0     3.53978    -5.07739    -1.06879                                   
 INPUT CARD>C     6.0     0.97362    -4.52277    -0.34179                                   
 INPUT CARD>H     1.0     2.49815    -2.92916    -0.62145                                   
 INPUT CARD>H     1.0     2.15502    -3.39623     1.09761                                   
 INPUT CARD>C     6.0     1.22281    -5.85290    -0.18410                                   
 INPUT CARD>H     1.0     2.37218    -5.92820     1.62523                                   
 INPUT CARD>H     1.0     3.00423    -7.05039     0.34020                                   
 INPUT CARD>H     1.0     0.26679    -4.22374    -1.14047                                   
 INPUT CARD>C     6.0     0.43572    -6.94864    -0.85285                                   
 INPUT CARD>H     1.0     1.08560    -7.47813    -1.58004                                   
 INPUT CARD>H     1.0    -0.44361    -6.53676    -1.39208                                   
 INPUT CARD>H     1.0     0.08033    -7.67641    -0.09422                                   
 INPUT CARD>B     5.0    -0.44887    -4.01547     1.08729                                   
 INPUT CARD>H     1.0    -0.14254    -3.20277     1.89126                                   
 INPUT CARD>H     1.0     0.06814    -5.89385     1.45809                                   
 INPUT CARD>H     1.0    -1.50728    -3.85291     0.57936                                   
 INPUT CARD> $END                                                                           
 INPUT CARD>                                                                                
 INPUT CARD>                                                                                
    1000000 WORDS OF MEMORY AVAILABLE

     BASIS OPTIONS
     -------------
     GBASIS=STO          IGAUSS=       3      POLAR=NONE    
     NDFUNC=       0     NFFUNC=       0     DIFFSP=       F
     NPFUNC=       0      DIFFS=       F     BASNAM=        


     RUN TITLE
     ---------
 Title                                                                           

 THE POINT GROUP OF THE MOLECULE IS C1      
 THE ORDER OF THE PRINCIPAL AXIS IS     0

 ATOM      ATOMIC                      COORDINATES (BOHR)
           CHARGE         X                   Y                   Z
 C           6.0     6.2312202664       -9.2147952449        0.0028534862
 C           6.0     4.2372947877       -7.1274795079        0.1037081622
 C           6.0     4.7667393177      -11.4668383962        1.0038602392
 H           1.0     8.0149515235       -8.7756985144        1.0175985471
 H           1.0     6.6892142568       -9.5948758328       -2.0197202384
 C           6.0     1.8398750162       -8.5467960055       -0.6458894453
 H           1.0     4.7208189762       -5.5353097742       -1.1743702151
 H           1.0     4.0723972981       -6.4179440913        2.0741821414
 C           6.0     2.3107758350      -11.0603772335       -0.3478985543
 H           1.0     4.4827701936      -11.2026736004        3.0712393670
 H           1.0     5.6771715041      -13.3233052066        0.6428847810
 H           1.0     0.5041599963       -7.9817112434       -2.1551757972
 C           6.0     0.8233914074      -13.1310255873       -1.6116528086
 H           1.0     2.0514865323      -14.1316166006       -2.9858426496
 H           1.0    -0.8383013454      -12.3526852475       -2.6306497530
 H           1.0     0.1518016886      -14.5063114694       -0.1780499826
 B           5.0    -0.8482413041       -7.5881380119        2.0546801692
 H           1.0    -0.2693615423       -6.0523577017        3.5739631715
 H           1.0     0.1287659288      -11.1377615127        2.7553905654
 H           1.0    -2.8483461868       -7.2809441554        1.0948316482

          INTERNUCLEAR DISTANCES (ANGS.)
          ------------------------------

                1 C          2 C          3 C          4 H          5 H     

   1 C       0.0000000    1.5284703 *  1.5170338 *  1.1105426 *  1.1156764 *
   2 C       1.5284703 *  0.0000000    2.3618516 *  2.2340126 *  2.1566100 *
   3 C       1.5170338 *  2.3618516 *  0.0000000    2.2321814 *  2.1392243 *
   4 H       1.1105426 *  2.2340126 *  2.2321814 *  0.0000000    1.8064980 *
   5 H       1.1156764 *  2.1566100 *  2.1392243 *  1.8064980 *  0.0000000  
   6 C       2.3754697 *  1.5267454 *  2.3555733 *  3.3863689    2.7242080 *
   7 H       2.1950194 *  1.1102997 *  3.3438739    2.7063759 *  2.4289912 *
   8 H       2.1672567 *  1.1117004 *  2.7557402 *  2.4943907 *  3.0719942  
   9 C       2.3004963 *  2.3297691 *  1.4990032 *  3.3309579    2.5985462 *
  10 H       2.1445544 *  2.6708361 *  1.1130949 *  2.5147867 *  3.0569447  
  11 H       2.2198001 *  3.3781331    1.1107252 *  2.7131033 *  2.4829006 *
  12 H       3.3037280    2.3528201 *  3.3591379    4.3350213    3.3832410  
  13 C       3.6351089    3.7657112    2.6543617 *  4.6615792    3.6308945  
  14 H       3.7633995    4.2128963    2.9172678 *  4.7412721    3.4710126  
  15 H       4.3237320    4.1174331    3.5659978    5.4091295    4.2546061  
  16 H       4.2661074    4.4657607    2.9903411 *  5.1875196    4.4353676  
  17 B       3.9943168    2.8926774 *  3.6538739    4.7638306    4.6567890  
  18 H       4.2667375    3.0632237    4.1426279    4.8088625    5.0828709  
  19 H       3.6858329    3.3465510    2.6292680 *  4.4523650    4.3708139  
  20 H       4.9463419    3.7869347    4.5986542    5.8029176    5.4487213  

                6 C          7 H          8 H          9 C         10 H     

   1 C       2.3754697 *  2.1950194 *  2.1672567 *  2.3004963 *  2.1445544 *
   2 C       1.5267454 *  1.1102997 *  1.1117004 *  2.3297691 *  2.6708361 *
   3 C       2.3555733 *  3.3438739    2.7557402 *  1.4990032 *  1.1130949 *
   4 H       3.3863689    2.7063759 *  2.4943907 *  3.3309579    2.5147867 *
   5 H       2.7242080 *  2.4289912 *  3.0719942    2.5985462 *  3.0569447  
   6 C       0.0000000    2.2230597 *  2.1763894 *  1.3624271 *  2.7929145 *
   7 H       2.2230597 *  0.0000000    1.8141279 *  3.2196308    3.7493573  
   8 H       2.1763894 *  1.8141279 *  0.0000000    2.9235293 *  2.5954602 *
   9 C       1.3624271 *  3.2196308    2.9235293 *  0.0000000    2.1448535 *
  10 H       2.7929145 *  3.7493573    2.5954602 *  2.1448535 *  0.0000000  
  11 H       3.3132084    4.2620916    3.8272331    2.2095995 *  1.8193679 *
  12 H       1.1076630 *  2.6314039 *  3.0428913    2.1172577 *  3.8712979  
  13 C       2.5368019 *  4.5236471    4.4022612    1.5057833 *  3.3063659  
  14 H       3.2062369    4.8587365    4.9975370    2.1468227 *  3.7856739  
  15 H       2.6772758 *  4.7183260    4.7764383    2.1688328 *  4.1717117  
  16 H       3.2870508    5.3535229    4.9035434    2.1537241 *  3.3563854  
  17 B       2.0792068 *  3.5755823    2.6765291 *  2.7905368 *  3.4505418  
  18 H       2.8239556 *  3.6553820    2.4384604 *  3.6324219    3.7178700  
  19 H       2.4370725 *  4.3610574    3.2746175    2.0079163 *  2.3103498 *
  20 H       2.7298525 *  4.2823741    3.7268728    3.4693260    4.5222652  

               11 H         12 H         13 C         14 H         15 H     

   1 C       2.2198001 *  3.3037280    3.6351089    3.7633995    4.3237320  
   2 C       3.3781331    2.3528201 *  3.7657112    4.2128963    4.1174331  
   3 C       1.1107252 *  3.3591379    2.6543617 *  2.9172678 *  3.5659978  
   4 H       2.7131033 *  4.3350213    4.6615792    4.7412721    5.4091295  
   5 H       2.4829006 *  3.3832410    3.6308945    3.4710126    4.2546061  
   6 C       3.3132084    1.1076630 *  2.5368019 *  3.2062369    2.6772758 *
   7 H       4.2620916    2.6314039 *  4.5236471    4.8587365    4.7183260  
   8 H       3.8272331    3.0428913    4.4022612    4.9975370    4.7764383  
   9 C       2.2095995 *  2.1172577 *  1.5057833 *  2.1468227 *  2.1688328 *
  10 H       1.8193679 *  3.8712979    3.3063659    3.7856739    4.1717117  
  11 H       0.0000000    4.2042730    2.8338957 *  2.7479855 *  3.8925840  
  12 H       4.2042730    0.0000000    2.7452400 *  3.3844831    2.4327016 *
  13 C       2.8338957 *  2.7452400 *  0.0000000    1.1097337 *  1.1106914 *
  14 H       2.7479855 *  3.3844831    1.1097337 *  0.0000000    1.8055441 *
  15 H       3.8925840    2.4327016 *  1.1106914 *  1.8055441 *  0.0000000  
  16 H       3.0215580    3.6125250    1.1097165 *  1.8048667 *  1.8049254 *
  17 B       4.6575511    2.3491403 *  3.6263107    4.6324143    3.5361287  
  18 H       5.2069308    3.2251074    4.6793233    5.6424245    4.6889715  
  19 H       3.3478183    3.0953583    2.5667374 *  3.5742694    2.9662586 *
  20 H       5.5348711    2.4985305 *  3.9255597    4.9526008    3.4958576  

               16 H         17 B         18 H         19 H         20 H     

   1 C       4.2661074    3.9943168    4.2667375    3.6858329    4.9463419  
   2 C       4.4657607    2.8926774 *  3.0632237    3.3465510    3.7869347  
   3 C       2.9903411 *  3.6538739    4.1426279    2.6292680 *  4.5986542  
   4 H       5.1875196    4.7638306    4.8088625    4.4523650    5.8029176  
   5 H       4.4353676    4.6567890    5.0828709    4.3708139    5.4487213  
   6 C       3.2870508    2.0792068 *  2.8239556 *  2.4370725 *  2.7298525 *
   7 H       5.3535229    3.5755823    3.6553820    4.3610574    4.2823741  
   8 H       4.9035434    2.6765291 *  2.4384604 *  3.2746175    3.7268728  
   9 C       2.1537241 *  2.7905368 *  3.6324219    2.0079163 *  3.4693260  
  10 H       3.3563854    3.4505418    3.7178700    2.3103498 *  4.5222652  
  11 H       3.0215580    4.6575511    5.2069308    3.3478183    5.5348711  
  12 H       3.6125250    2.3491403 *  3.2251074    3.0953583    2.4985305 *
  13 C       1.1097165 *  3.6263107    4.6793233    2.5667374 *  3.9255597  
  14 H       1.8048667 *  4.6324143    5.6424245    3.5742694    4.9526008  
  15 H       1.8049254 *  3.5361287    4.6889715    2.9662586 *  3.4958576  
  16 H       0.0000000    3.8831045    4.8995160    2.3637544 *  4.1944449  
  17 B       3.8831045    0.0000000    1.1835063 *  1.9832053 *  1.1851795 *
  18 H       4.8995160    1.1835063 *  0.0000000    2.7338496 *  2.0015691 *
  19 H       2.3637544 *  1.9832053 *  2.7338496 *  0.0000000    2.7238852 *
  20 H       4.1944449    1.1851795 *  2.0015691 *  2.7238852 *  0.0000000  

  * ... LESS THAN  3.000


     ATOMIC BASIS SET
     ----------------
 THE CONTRACTED PRIMITIVE FUNCTIONS HAVE BEEN UNNORMALIZED
 THE CONTRACTED BASIS FUNCTIONS ARE NOW NORMALIZED TO UNITY

  SHELL TYPE  PRIMITIVE        EXPONENT          CONTRACTION COEFFICIENT(S)

 C         

      1   S       1            71.6168373    0.154328967295
      1   S       2            13.0450963    0.535328142282
      1   S       3             3.5305122    0.444634542185

      2   L       4             2.9412494   -0.099967229187    0.155916274999
      2   L       5             0.6834831    0.399512826089    0.607683718598
      2   L       6             0.2222899    0.700115468880    0.391957393099

 C         

      3   S       7            71.6168373    0.154328967295
      3   S       8            13.0450963    0.535328142282
      3   S       9             3.5305122    0.444634542185

      4   L      10             2.9412494   -0.099967229187    0.155916274999
      4   L      11             0.6834831    0.399512826089    0.607683718598
      4   L      12             0.2222899    0.700115468880    0.391957393099

 C         

      5   S      13            71.6168373    0.154328967295
      5   S      14            13.0450963    0.535328142282
      5   S      15             3.5305122    0.444634542185

      6   L      16             2.9412494   -0.099967229187    0.155916274999
      6   L      17             0.6834831    0.399512826089    0.607683718598
      6   L      18             0.2222899    0.700115468880    0.391957393099

 H         

      7   S      19             3.4252509    0.154328967295
      7   S      20             0.6239137    0.535328142282
      7   S      21             0.1688554    0.444634542185

 H         

      8   S      22             3.4252509    0.154328967295
      8   S      23             0.6239137    0.535328142282
      8   S      24             0.1688554    0.444634542185

 C         

      9   S      25            71.6168373    0.154328967295
      9   S      26            13.0450963    0.535328142282
      9   S      27             3.5305122    0.444634542185

     10   L      28             2.9412494   -0.099967229187    0.155916274999
     10   L      29             0.6834831    0.399512826089    0.607683718598
     10   L      30             0.2222899    0.700115468880    0.391957393099

 H         

     11   S      31             3.4252509    0.154328967295
     11   S      32             0.6239137    0.535328142282
     11   S      33             0.1688554    0.444634542185

 H         

     12   S      34             3.4252509    0.154328967295
     12   S      35             0.6239137    0.535328142282
     12   S      36             0.1688554    0.444634542185

 C         

     13   S      37            71.6168373    0.154328967295
     13   S      38            13.0450963    0.535328142282
     13   S      39             3.5305122    0.444634542185

     14   L      40             2.9412494   -0.099967229187    0.155916274999
     14   L      41             0.6834831    0.399512826089    0.607683718598
     14   L      42             0.2222899    0.700115468880    0.391957393099

 H         

     15   S      43             3.4252509    0.154328967295
     15   S      44             0.6239137    0.535328142282
     15   S      45             0.1688554    0.444634542185

 H         

     16   S      46             3.4252509    0.154328967295
     16   S      47             0.6239137    0.535328142282
     16   S      48             0.1688554    0.444634542185

 H         

     17   S      49             3.4252509    0.154328967295
     17   S      50             0.6239137    0.535328142282
     17   S      51             0.1688554    0.444634542185

 C         

     18   S      52            71.6168373    0.154328967295
     18   S      53            13.0450963    0.535328142282
     18   S      54             3.5305122    0.444634542185

     19   L      55             2.9412494   -0.099967229187    0.155916274999
     19   L      56             0.6834831    0.399512826089    0.607683718598
     19   L      57             0.2222899    0.700115468880    0.391957393099

 H         

     20   S      58             3.4252509    0.154328967295
     20   S      59             0.6239137    0.535328142282
     20   S      60             0.1688554    0.444634542185

 H         

     21   S      61             3.4252509    0.154328967295
     21   S      62             0.6239137    0.535328142282
     21   S      63             0.1688554    0.444634542185

 H         

     22   S      64             3.4252509    0.154328967295
     22   S      65             0.6239137    0.535328142282
     22   S      66             0.1688554    0.444634542185

 B         

     23   S      67            48.7911132    0.154328967295
     23   S      68             8.8873622    0.535328142282
     23   S      69             2.4052670    0.444634542185

     24   L      70             2.2369561   -0.099967229187    0.155916274999
     24   L      71             0.5198205    0.399512826089    0.607683718598
     24   L      72             0.1690618    0.700115468880    0.391957393099

 H         

     25   S      73             3.4252509    0.154328967295
     25   S      74             0.6239137    0.535328142282
     25   S      75             0.1688554    0.444634542185

 H         

     26   S      76             3.4252509    0.154328967295
     26   S      77             0.6239137    0.535328142282
     26   S      78             0.1688554    0.444634542185

 H         

     27   S      79             3.4252509    0.154328967295
     27   S      80             0.6239137    0.535328142282
     27   S      81             0.1688554    0.444634542185

 TOTAL NUMBER OF BASIS SET SHELLS             =   27
 NUMBER OF CARTESIAN GAUSSIAN BASIS FUNCTIONS =   48
 NUMBER OF ELECTRONS                          =   54
 CHARGE OF MOLECULE                           =    0
 SPIN MULTIPLICITY                            =    1
 NUMBER OF OCCUPIED ORBITALS (ALPHA)          =   27
 NUMBER OF OCCUPIED ORBITALS (BETA )          =   27
 TOTAL NUMBER OF ATOMS                        =   20
 THE NUCLEAR REPULSION ENERGY IS      301.8293316731

     $CONTRL OPTIONS
     ---------------
 SCFTYP=RHF          RUNTYP=OPTIMIZE     EXETYP=RUN     
 MPLEVL=       0     CITYP =NONE         CCTYP =NONE         VBTYP =NONE    
 DFTTYP=NONE         TDDFT =NONE    
 MULT  =       1     ICHARG=       0     NZVAR =       1     COORD =UNIQUE  
 PP    =NONE         RELWFN=NONE         LOCAL =NONE         NUMGRD=       F
 ISPHER=      -1     NOSYM =       0     MAXIT =      30     UNITS =ANGS    
 PLTORB=       F     MOLPLT=       F     AIMPAC=       F     FRIEND=        
 NPRINT=       7     IREST =       0     GEOM  =INPUT   
 NORMF =       0     NORMP =       0     ITOL  =      20     ICUT  =       9
 INTTYP=BEST         GRDTYP=BEST         QMTTOL= 1.0E-06

     $SYSTEM OPTIONS
     ---------------
  REPLICATED MEMORY=     1000000 WORDS (ON EVERY NODE).
 DISTRIBUTED MEMDDI=           0 MILLION WORDS IN AGGREGATE,
 MEMDDI DISTRIBUTED OVER   1 PROCESSORS IS           0 WORDS/PROCESSOR.
 TOTAL MEMORY REQUESTED ON EACH PROCESSOR=     1000000 WORDS.
 TIMLIM=      525600.00 MINUTES, OR     365.0 DAYS.
 PARALL= F  BALTYP=  DLB     KDIAG=    0  COREFL= F
 MXSEQ2=     300 MXSEQ3=     150  mem10=         0

          ----------------
          PROPERTIES INPUT
          ----------------

     MOMENTS            FIELD           POTENTIAL          DENSITY
 IEMOM =       1   IEFLD =       0   IEPOT =       0   IEDEN =       0
 WHERE =COMASS     WHERE =NUCLEI     WHERE =NUCLEI     WHERE =NUCLEI  
 OUTPUT=BOTH       OUTPUT=BOTH       OUTPUT=BOTH       OUTPUT=BOTH    
 IEMINT=       0   IEFINT=       0                     IEDINT=       0
                                                       MORB  =       0
          EXTRAPOLATION IN EFFECT
          SOSCF IN EFFECT
 ORBITAL PRINTING OPTION: NPREO=     1    48     2     1

     -------------------------------
     INTEGRAL TRANSFORMATION OPTIONS
     -------------------------------
     NWORD  =            0
     CUTOFF = 1.0E-09     MPTRAN =       0
     DIRTRF =       F     AOINTS =DUP     

          ----------------------
          INTEGRAL INPUT OPTIONS
          ----------------------
 NOPK  =       1 NORDER=       0 SCHWRZ=       T


 -----------------------------------------------
  STATISTICS ON AUTOMATIC COORDINATE GENERATION 
 -----------------------------------------------
  NUMBER OF USER SPECIFIED BONDS                             3
  NUMBER OF BONDS                                           21
  NUMBER OF ANGLES                                          46
  NUMBER OF TORSIONS                                        81
  NUMBER OF EXTRA COORD.                                     0
  NUMBER OF EXTRA COORD. FOR CONSTRAINTS                     1
  NUMBER OF CONSTRAINED COORD.                               3

  TOTAL NUMBER OF PRIMITIVES                               149
 -----------------------------------------------

   --- ENCODED Z MATRIX ---
 COORD  TYPE   I   J   K   L   M   N
    1      1    6  17
    2      1    9  19
    3      1   17  19
    4      1    1   2
    5      1    1   4
    6      1    1  17
    7      1    1   3
    8      1    1   5
    9      1    2   6
   10      1    2   7
   11      1    2   8
   12      1    3  11
   13      1    3  10
   14      1    3   9
   15      1    6  12
   16      1    6   9
   17      1    9  13
   18      1   13  15
   19      1   13  14
   20      1   13  16
   21      1   17  20
   22      1   17  18
   23      2    1   2   6
   24      2    1   2   7
   25      2    1   2   8
   26      2    1  17   6
   27      2    1   3  10
   28      2    1  17  18
   29      2    1  17  20
   30      2    1   3  11
   31      2    1   3   9
   32      2    2   6   9
   33      2    2   6  12
   34      2    2   1   3
   35      2    2   1  17
   36      2    2   1   5
   37      2    2   1   4
   38      2    2   6  17
   39      2    3   9  13
   40      2    3   9   6
   41      2    3   1  17
   42      2    3   1   4
   43      2    3   9  19
   44      2    3   1   5
   45      2    4   1   5
   46      2    4   1  17
   47      2    5   1  17
   48      2    6   2   7
   49      2    6   9  19
   50      2    6   9  13
   51      2    6  17  18
   52      2    6  17  20
   53      2    6   2   8
   54      2    7   2   8
   55      2    9   3  10
   56      2    9   3  11
   57      2    9  13  16
   58      2    9  13  14
   59      2    9  13  15
   60      2    9   6  17
   61      2    9   6  12
   62      2   10   3  11
   63      2   12   6  17
   64      2   13   9  19
   65      2   14  13  16
   66      2   14  13  15
   67      2   15  13  16
   68      2   18  17  20
   69      3    1   2   6   9
   70      3    1   2   6  17
   71      3    1   3   9  19
   72      3    1  17   6   9
   73      3    1   3   9  13
   74      3    1   3   9   6
   75      3    1  17   6  12
   76      3    1   2   6  12
   77      3    1  17   6   2
   78      3    2   1  17  20
   79      3    2   1  17  18
   80      3    2   6   9  19
   81      3    2   6   9  13
   82      3    2   6   9   3
   83      3    2   1   3  10
   84      3    2   6  17  18
   85      3    2   1   3   9
   86      3    2   6  17  20
   87      3    2   1   3  11
   88      3    2   1  17   6
   89      3    3   1   2   6
   90      3    3   1  17  18
   91      3    3   1   2   8
   92      3    3   9   6  17
   93      3    3   9   6  12
   94      3    3   9  13  16
   95      3    3   9  13  14
   96      3    3   9  13  15
   97      3    3   1   2   7
   98      3    3   1  17   6
   99      3    3   1  17  20
  100      3    4   1   2   6
  101      3    4   1  17  18
  102      3    4   1   2   8
  103      3    4   1   3  10
  104      3    4   1   3   9
  105      3    4   1   3  11
  106      3    4   1  17   6
  107      3    4   1   2   7
  108      3    4   1  17  20
  109      3    5   1  17  18
  110      3    5   1   2   8
  111      3    5   1   3  10
  112      3    5   1   2   7
  113      3    5   1   3   9
  114      3    5   1   3  11
  115      3    5   1  17   6
  116      3    5   1  17  20
  117      3    5   1   2   6
  118      3    6   9  13  16
  119      3    6   9  13  14
  120      3    6   9  13  15
  121      3    6   9   3  10
  122      3    6   9   3  11
  123      3    6   2   1  17
  124      3    7   2   6  12
  125      3    7   2   6   9
  126      3    7   2   6  17
  127      3    7   2   1  17
  128      3    8   2   6  12
  129      3    8   2   1  17
  130      3    8   2   6   9
  131      3    8   2   6  17
  132      3    9   6  17  18
  133      3    9   3   1  17
  134      3    9   6  17  20
  135      3   10   3   9  19
  136      3   10   3   1  17
  137      3   10   3   9  13
  138      3   11   3   9  19
  139      3   11   3   9  13
  140      3   11   3   1  17
  141      3   12   6  17  18
  142      3   12   6   9  13
  143      3   12   6   9  19
  144      3   12   6  17  20
  145      3   13   9   6  17
  146      3   14  13   9  19
  147      3   15  13   9  19
  148      3   16  13   9  19
  149      3   17   6   9  19

          INDEP./SYM. INTERNAL COORDINATES
          --------------------------------
 CRD  1=   1.0000 (  1)
 CRD  2=   1.0000 (  2)
 CRD  3=   1.0000 (  3)
 CRD  4=   0.2034 (  4) -0.2319 (  6)  0.1927 (  7) -0.1019 (  9) -0.2208 ( 17)
          -0.1010 ( 21) -0.1912 ( 28)  0.1490 ( 29)  0.1304 ( 32) -0.1565 ( 38)
           0.1488 ( 43) -0.1461 ( 51)  0.1002 ( 52) -0.3309 ( 57)  0.2235 ( 58)
           0.1520 ( 63) -0.2156 ( 64)  0.1595 ( 67) -0.1072 ( 71)  0.1591 ( 80)
           0.1116 ( 92)  0.1062 (118)  0.1017 (119) -0.1031 (138)  0.1506 (143)
           0.2914 (149)
 CRD  5=  -0.1737 (  4)  0.2131 (  7)  0.2758 (  9)  0.1186 ( 10) -0.1210 ( 12)
          -0.1623 ( 14)  0.1226 ( 29)  0.1025 ( 31)  0.1346 ( 35) -0.1805 ( 41)
           0.1137 ( 48)  0.1677 ( 49)  0.1050 ( 52) -0.1066 ( 56)  0.1423 ( 57)
          -0.2814 ( 58) -0.1472 ( 60) -0.1058 ( 64) -0.1359 ( 70) -0.2086 ( 71)
           0.1188 ( 80)  0.1072 ( 81) -0.1062 (109)  0.1085 (110)  0.1036 (117)
          -0.1681 (126) -0.1088 (135) -0.1867 (138)  0.1331 (147)
 CRD  6=  -0.2045 (  7) -0.1457 (  9) -0.1320 ( 10) -0.1247 ( 12) -0.2346 ( 16)
          -0.1030 ( 21) -0.2415 ( 28)  0.1426 ( 31) -0.2022 ( 34) -0.1007 ( 35)
           0.1061 ( 36) -0.1077 ( 38) -0.1072 ( 43)  0.1154 ( 47) -0.1119 ( 48)
          -0.1964 ( 51) -0.3010 ( 58)  0.2956 ( 59)  0.1368 ( 65) -0.1006 ( 67)
           0.1995 ( 68) -0.1543 ( 80) -0.1320 (123) -0.1478 (129)
 CRD  7=  -0.2537 (  4)  0.1095 (  6) -0.3423 (  7)  0.3216 ( 14)  0.1417 ( 23)
          -0.1105 ( 24) -0.1341 ( 25)  0.1710 ( 29) -0.1736 ( 30) -0.1221 ( 32)
           0.1531 ( 43)  0.1663 ( 52)  0.1147 ( 56) -0.2387 ( 57)  0.1695 ( 59)
          -0.1190 ( 64)  0.1055 ( 65) -0.1353 ( 68)  0.2011 ( 80)  0.1074 ( 86)
          -0.1153 (125)  0.1051 (128) -0.1035 (135)  0.1379 (143)  0.1452 (149)
 CRD  8=  -0.1177 (  4) -0.1745 (  7) -0.1617 ( 12) -0.2816 ( 14)  0.1549 ( 19)
           0.2134 ( 29)  0.1044 ( 31) -0.1847 ( 43)  0.1928 ( 52) -0.1540 ( 57)
           0.4478 ( 58) -0.2332 ( 59)  0.1576 ( 64) -0.1237 ( 65) -0.1090 ( 66)
           0.1710 ( 67) -0.1008 ( 68) -0.1059 ( 74) -0.1320 ( 80) -0.1027 (122)
           0.1259 (136) -0.1483 (143) -0.1164 (149)
 CRD  9=  -0.1069 (  4) -0.1954 (  7) -0.1065 ( 12) -0.1143 ( 17) -0.1465 ( 18)
           0.1459 ( 20)  0.1360 ( 31) -0.1196 ( 40)  0.1641 ( 43)  0.1094 ( 50)
           0.4309 ( 57) -0.5161 ( 59) -0.1257 ( 64) -0.1611 ( 65)  0.2362 ( 66)
           0.1291 (143)  0.1255 (149)
 CRD 10=  -0.2180 (  4) -0.1518 (  5) -0.2137 (  6) -0.2735 (  9) -0.1097 ( 10)
          -0.1550 ( 12)  0.1375 ( 13) -0.1291 ( 14) -0.2295 ( 15) -0.1662 ( 21)
           0.1530 ( 28) -0.3612 ( 29)  0.1141 ( 51) -0.3057 ( 52) -0.1099 ( 57)
           0.1438 ( 58) -0.1190 ( 66)  0.1287 ( 68) -0.1061 ( 71) -0.1008 ( 73)
           0.1407 (113)
 CRD 11=  -0.3471 (  4)  0.2554 (  7)  0.1078 ( 12)  0.1171 ( 13)  0.1230 ( 15)
           0.1020 ( 21) -0.1689 ( 22) -0.1762 ( 25) -0.3432 ( 28) -0.1476 ( 31)
          -0.3565 ( 51)  0.2346 ( 68) -0.1244 (108)  0.1355 (109)  0.1443 (130)
           0.1164 (131)
 CRD 12=  -0.2257 (  5) -0.2781 (  6) -0.3624 (  7) -0.1950 (  8)  0.2023 (  9)
           0.1583 ( 10)  0.1215 ( 11) -0.2098 ( 23) -0.1396 ( 28) -0.1260 ( 29)
           0.1992 ( 34)  0.1387 ( 35) -0.1173 ( 44)  0.1186 ( 45)  0.1551 ( 48)
          -0.1501 ( 51) -0.1354 ( 52) -0.1141 ( 54)  0.1796 ( 68)  0.1192 ( 79)
           0.1147 (101)  0.1151 (122)
 CRD 13=   0.1283 (  4)  0.2270 (  5)  0.2482 (  6)  0.2240 (  9)  0.1468 ( 15)
           0.1141 ( 22) -0.1489 ( 25)  0.1520 ( 27) -0.2156 ( 29)  0.1059 ( 42)
          -0.2531 ( 52) -0.1228 ( 55) -0.1057 ( 59)  0.1249 ( 80)  0.1126 ( 90)
           0.1338 ( 91)  0.1487 ( 93)  0.1021 (135)  0.1521 (142)  0.1814 (143)
          -0.1398 (146) -0.1228 (147) -0.1421 (148)  0.1167 (149)
 CRD 14=  -0.2777 (  4) -0.1413 (  6)  0.1240 (  7) -0.1397 (  8) -0.1243 ( 10)
          -0.2206 ( 13) -0.1166 ( 14) -0.1669 ( 15)  0.2445 ( 22) -0.2084 ( 24)
           0.1013 ( 28)  0.1174 ( 33)  0.1027 ( 42) -0.1060 ( 46)  0.1154 ( 48)
           0.1228 ( 51) -0.1186 ( 55) -0.1636 ( 61)  0.1132 ( 71)  0.1237 ( 72)
           0.1049 ( 73)  0.1062 ( 74)  0.1228 ( 76)  0.1007 ( 77)  0.1290 ( 90)
           0.2090 ( 98) -0.1499 (104) -0.1158 (105) -0.1053 (108)  0.1773 (115)
           0.1093 (121) -0.1641 (125) -0.1102 (126)  0.1162 (135)  0.1079 (137)
          -0.1180 (144)
 CRD 15=  -0.1460 (  5) -0.1645 (  6) -0.1312 (  8) -0.2638 ( 11)  0.1194 ( 12)
           0.1113 ( 14)  0.3979 ( 15)  0.1559 ( 16) -0.2685 ( 21)  0.1637 ( 22)
           0.1149 ( 28) -0.1207 ( 46)  0.1637 ( 51) -0.1563 ( 52)  0.1136 ( 56)
           0.1126 ( 61) -0.1321 ( 70) -0.1127 ( 78) -0.2067 ( 79) -0.1649 ( 88)
          -0.1196 ( 90) -0.1346 (129)  0.1287 (140)
 CRD 16=  -0.2560 (  9) -0.2472 ( 11) -0.3794 ( 15)  0.1521 ( 21)  0.1367 ( 27)
          -0.1168 ( 30) -0.1931 ( 33)  0.1188 ( 38) -0.1084 ( 51)  0.1158 ( 52)
          -0.1453 ( 55)  0.1239 ( 56)  0.1005 ( 75) -0.1306 ( 88) -0.1026 ( 92)
          -0.1096 ( 94) -0.1048 ( 95) -0.1192 ( 96) -0.1092 (115) -0.1301 (118)
          -0.1253 (119) -0.1397 (120)  0.1162 (121)  0.1079 (137)  0.1303 (141)
           0.1412 (144) -0.1231 (146) -0.1375 (147) -0.1279 (148)
 CRD 17=   0.2033 (  8) -0.1049 ( 10)  0.2730 ( 13)  0.1223 ( 15) -0.2534 ( 24)
           0.2407 ( 25)  0.1049 ( 44)  0.1414 ( 48) -0.1835 ( 53)  0.1092 ( 76)
          -0.1351 ( 91) -0.1211 ( 94) -0.1152 ( 95) -0.1096 ( 97) -0.2181 (118)
          -0.2122 (119) -0.1766 (120) -0.1599 (125) -0.1968 (126) -0.1094 (128)
          -0.1695 (130) -0.2064 (131) -0.1492 (146) -0.1137 (147) -0.1551 (148)
 CRD 18=  -0.3125 (  5)  0.5101 (  8)  0.2087 ( 11)  0.1727 ( 27) -0.1857 ( 30)
           0.1520 ( 36) -0.1074 ( 37)  0.1283 ( 47)  0.1373 ( 48) -0.1636 ( 55)
           0.2005 ( 56)  0.2051 ( 83)  0.2145 ( 87) -0.1158 ( 91) -0.1617 ( 97)
          -0.1098 (113)  0.1149 (135)  0.1428 (136)  0.1201 (138)  0.1522 (140)
 CRD 19=  -0.1768 (  5)  0.1391 ( 11)  0.1920 ( 13)  0.1585 ( 18)  0.2622 ( 20)
           0.1482 ( 22)  0.1763 ( 30) -0.1267 ( 58)  0.1301 ( 66) -0.1298 ( 68)
           0.1021 ( 73) -0.1322 ( 81) -0.2386 ( 94) -0.2489 ( 95) -0.2911 ( 96)
          -0.1202 (120) -0.1396 (121) -0.2079 (122) -0.1595 (138) -0.1373 (142)
          -0.1047 (145) -0.1619 (146) -0.2041 (147) -0.1516 (148)
 CRD 20=   0.1023 ( 15) -0.1328 ( 17) -0.4574 ( 18) -0.5312 ( 19) -0.3696 ( 20)
           0.2091 ( 57)  0.1543 ( 58)  0.1817 ( 59) -0.1794 ( 65) -0.1503 ( 66)
          -0.2285 ( 67) -0.1117 ( 96)
 CRD 21=  -0.1821 (  5)  0.1924 ( 10) -0.1046 ( 11)  0.3782 ( 12) -0.3558 ( 13)
          -0.1585 ( 15)  0.1288 ( 19) -0.2602 ( 20) -0.2040 ( 21) -0.1695 ( 22)
          -0.1897 ( 27)  0.1114 ( 30) -0.1053 (118) -0.1019 (119) -0.1726 (121)
          -0.1197 (122) -0.1853 (135) -0.2693 (137) -0.1324 (138) -0.2164 (139)
           0.1130 (142)
 CRD 22=   0.2354 ( 10) -0.2353 ( 11) -0.1013 ( 15)  0.5715 ( 21)  0.5447 ( 22)
          -0.1159 ( 28) -0.1129 ( 29) -0.1176 ( 52)  0.1946 ( 68)
 CRD 23=  -0.2926 ( 10)  0.3711 ( 11) -0.3862 ( 13)  0.2428 ( 15)  0.2590 ( 21)
           0.2542 ( 22) -0.1265 ( 33)  0.1016 ( 53)  0.1194 ( 63)  0.1167 ( 91)
          -0.1782 ( 93)  0.1073 ( 97) -0.1068 (118) -0.1170 (119)  0.1134 (127)
           0.1227 (129) -0.1434 (143)  0.1176 (144)
 CRD 24=   0.6229 ( 18) -0.2987 ( 19) -0.3366 ( 20) -0.1009 ( 59) -0.3434 ( 65)
           0.1912 ( 66)  0.1498 ( 67) -0.1802 ( 94)  0.1806 ( 95) -0.1637 (118)
           0.1971 (119)  0.1995 (146) -0.1613 (148)
 CRD 25=  -0.5225 ( 19)  0.4761 ( 20) -0.3053 ( 66)  0.3279 ( 67)  0.2576 ( 96)
          -0.1669 (118) -0.1433 (119)  0.1846 (120) -0.1036 (146)  0.2242 (147)
          -0.1273 (148)
 CRD 26=  -0.1531 (  5) -0.2775 ( 11)  0.1342 ( 13)  0.1184 ( 15) -0.1630 ( 20)
           0.1253 ( 24) -0.1164 ( 30)  0.1171 ( 63) -0.1209 ( 68)  0.1199 ( 69)
           0.1143 ( 74)  0.1554 ( 76) -0.1473 ( 82) -0.1664 ( 93)  0.1324 (115)
          -0.1680 (118) -0.1417 (119) -0.1565 (120)  0.1681 (121)  0.2173 (122)
           0.2669 (124)  0.2313 (125)  0.1575 (126)  0.2433 (128)  0.2077 (130)
           0.1339 (131)  0.1206 (138)
 CRD 27=   0.1984 (  8) -0.1384 ( 11) -0.6337 ( 12) -0.5071 ( 13)  0.1204 ( 30)
          -0.2198 ( 62) -0.1291 (103) -0.1228 (122) -0.1032 (136) -0.1125 (138)
 CRD 28=   0.1697 (  8) -0.6365 ( 10) -0.5129 ( 11)  0.1122 ( 12) -0.2345 ( 54)
           0.1038 ( 91)  0.1137 (102) -0.1071 (112) -0.1172 (128)  0.1324 (129)
          -0.1046 (130)
 CRD 29=  -0.6047 (  5)  0.1546 (  6)  0.1114 (  7) -0.4770 (  8) -0.1786 ( 10)
          -0.1480 ( 12)  0.1144 ( 36) -0.2332 ( 45)  0.1062 ( 46)  0.1295 ( 47)
          -0.1447 (111) -0.1217 (113) -0.1244 (114)
 CRD 30=  -0.1310 ( 13)  0.1475 ( 14) -0.1688 ( 15) -0.1290 ( 16) -0.2107 ( 22)
           0.1020 ( 33)  0.1097 ( 56) -0.1206 ( 61)  0.1196 ( 68) -0.2311 ( 79)
          -0.2512 ( 84)  0.1067 ( 87) -0.2361 ( 90) -0.1414 (101)  0.1596 (105)
           0.1308 (106)  0.1117 (110)  0.1124 (112)  0.1627 (114)  0.1747 (115)
          -0.2625 (132)  0.1026 (140) -0.3665 (141) -0.1384 (144)
 CRD 31=   0.1957 ( 16) -0.1215 ( 17) -0.1067 ( 19) -0.1462 ( 20)  0.1880 ( 21)
          -0.1062 ( 22) -0.1022 ( 36)  0.1677 ( 39)  0.1186 ( 44) -0.1239 ( 57)
           0.1234 ( 65) -0.1949 ( 68) -0.1109 ( 76) -0.2813 ( 78) -0.2025 ( 86)
          -0.2698 ( 99)  0.1473 (101) -0.1723 (108)  0.1874 (109)  0.1247 (110)
           0.1346 (111)  0.1250 (112)  0.1216 (113)  0.1283 (114)  0.1398 (115)
          -0.1322 (116)  0.1095 (117) -0.1049 (124) -0.1344 (128) -0.1735 (134)
          -0.1756 (144)
 CRD 32=   0.2362 (  5) -0.3056 (  8) -0.1143 ( 11)  0.1496 ( 12) -0.1716 ( 13)
           0.1010 ( 22)  0.1278 ( 46)  0.1095 ( 48)  0.1019 ( 56)  0.1141 ( 78)
           0.1235 ( 79)  0.1686 ( 83)  0.1761 ( 87) -0.1004 ( 89) -0.1495 ( 91)
          -0.1926 ( 97) -0.1197 (100) -0.1688 (102)  0.2256 (103)  0.1543 (104)
           0.2330 (105) -0.2119 (107) -0.1596 (110)  0.2049 (111) -0.2027 (112)
           0.1336 (113)  0.2124 (114) -0.1105 (117)
 CRD 33=   0.1580 (  5) -0.1915 (  8) -0.1801 ( 12)  0.1445 ( 13)  0.1337 ( 14)
          -0.1452 ( 15)  0.1563 ( 16) -0.1643 ( 18) -0.1349 ( 19) -0.1744 ( 20)
          -0.1603 ( 22)  0.1353 ( 36) -0.1372 ( 37) -0.1213 ( 40)  0.1108 ( 42)
          -0.1335 ( 57) -0.1230 ( 58) -0.1270 ( 59)  0.1109 ( 64)  0.1274 ( 65)
           0.1123 ( 66)  0.1530 ( 67)  0.1001 ( 75) -0.2655 (101) -0.1213 (106)
          -0.1351 (107) -0.1867 (108) -0.2170 (109) -0.1155 (111) -0.1234 (112)
          -0.1381 (116)  0.1080 (138) -0.1227 (143)
 CRD 34=  -0.1442 ( 10)  0.1335 ( 11)  0.2057 ( 14) -0.3825 ( 15) -0.1720 ( 18)
          -0.3339 ( 21)  0.3697 ( 22) -0.1380 ( 59)  0.1109 ( 66)  0.1245 ( 67)
           0.1557 (101)  0.1003 (105)  0.1922 (108)  0.1430 (109)  0.1137 (110)
           0.1796 (116)
 CRD 35=   0.2418 ( 14) -0.2133 ( 15) -0.3036 ( 16) -0.1104 ( 17)  0.1231 ( 19)
           0.1566 ( 20)  0.1366 ( 21) -0.1383 ( 39) -0.1075 ( 43)  0.1676 ( 49)
           0.1195 ( 58) -0.1207 ( 62) -0.1681 ( 65) -0.1329 ( 68) -0.1172 ( 71)
          -0.1664 ( 78) -0.1018 ( 80)  0.1566 ( 84) -0.1645 ( 99) -0.1063 (103)
          -0.1597 (108) -0.1132 (111) -0.1049 (115) -0.2116 (116)  0.1303 (132)
          -0.1033 (134) -0.1440 (138)  0.1116 (141) -0.1219 (144)  0.2026 (146)
           0.1450 (147)  0.1255 (148)
 CRD 36=   0.1977 (  8)  0.1640 ( 10) -0.2109 ( 11)  0.1345 ( 12) -0.1528 ( 13)
           0.1604 ( 17) -0.1283 ( 18) -0.1527 ( 22) -0.1073 ( 24) -0.1213 ( 29)
          -0.1357 ( 45)  0.1112 ( 46) -0.1204 ( 52) -0.1145 ( 57) -0.1122 ( 59)
           0.1400 ( 63)  0.1210 ( 66)  0.1001 ( 67)  0.1729 ( 76) -0.1166 ( 93)
           0.1444 (104)  0.1034 (118)  0.1243 (119) -0.1747 (125) -0.1106 (126)
           0.1577 (128)  0.1054 (132)  0.1344 (139) -0.2753 (142) -0.2170 (143)
          -0.1057 (145)
 CRD 37=   0.1469 (  5) -0.1195 ( 14) -0.1431 ( 15)  0.1620 ( 16) -0.4502 ( 17)
           0.2416 ( 18)  0.1397 ( 19)  0.1272 ( 20) -0.1820 ( 21) -0.1135 ( 45)
           0.1494 ( 57)  0.1847 ( 58)  0.1977 ( 59) -0.1302 ( 65) -0.2178 ( 66)
          -0.1961 ( 67)  0.1563 (110) -0.1015 (121) -0.1562 (142) -0.1205 (143)
 CRD 38=  -0.1341 (  5) -0.1027 (  6)  0.1215 (  7)  0.1070 (  8)  0.1144 ( 10)
           0.1204 ( 15) -0.1201 ( 16) -0.2124 ( 17)  0.2359 ( 19)  0.1195 ( 29)
          -0.1369 ( 30) -0.1044 ( 43) -0.1010 ( 48)  0.1130 ( 52)  0.1348 ( 55)
           0.1787 ( 57) -0.1298 ( 65) -0.1089 ( 66)  0.1252 ( 72) -0.1059 ( 76)
           0.1538 ( 93) -0.2055 ( 94) -0.1131 ( 95)  0.1349 (113) -0.1009 (118)
           0.1342 (120)  0.1070 (122) -0.2123 (128) -0.1274 (130)  0.1207 (134)
           0.1723 (138)  0.2146 (139)  0.1405 (147)
 CRD 39=   0.1867 (  4) -0.1562 (  6) -0.2060 (  9)  0.1070 ( 12) -0.1670 ( 14)
           0.1785 ( 17) -0.1544 ( 20)  0.1384 ( 22) -0.1630 ( 24) -0.1587 ( 25)
           0.1064 ( 29)  0.1824 ( 53)  0.1042 ( 54) -0.1324 ( 58)  0.1021 ( 65)
           0.1019 ( 93) -0.1152 ( 95) -0.1126 (109) -0.1163 (111) -0.1053 (119)
          -0.2658 (124) -0.1256 (125) -0.1887 (126)  0.1976 (130)  0.1344 (131)
          -0.1089 (132)  0.1105 (143) -0.1090 (146)
 CRD 40=   0.1168 (  5) -0.1562 (  6)  0.1190 (  7) -0.1022 (  8) -0.1613 (  9)
          -0.1295 ( 10)  0.1129 ( 16)  0.3275 ( 21) -0.3064 ( 22)  0.1242 ( 28)
           0.1002 ( 47) -0.1015 ( 52)  0.1051 ( 56) -0.1244 ( 61) -0.1044 ( 75)
           0.1377 ( 78)  0.2057 ( 99)  0.1025 (100)  0.1476 (101)  0.2701 (108)
           0.2159 (116)  0.1563 (128)  0.1519 (132)  0.1550 (134)  0.1178 (140)
 CRD 41=  -0.1383 (  4)  0.2172 (  5) -0.1069 (  8) -0.1335 (  9) -0.2636 ( 14)
           0.2031 ( 15) -0.1578 ( 16)  0.2459 ( 17) -0.1175 ( 18) -0.1459 ( 21)
           0.1447 ( 22) -0.1050 ( 27) -0.1046 ( 30)  0.1076 ( 38)  0.1104 ( 47)
           0.1034 ( 55)  0.2067 ( 56)  0.1443 ( 87) -0.1294 (103)  0.1272 (110)
          -0.1879 (111) -0.1376 (113)  0.1515 (117) -0.1199 (121)  0.1176 (126)
          -0.1709 (135)  0.1087 (140) -0.1035 (145)
 CRD 42=   0.1656 (  4) -0.2081 (  9)  0.1976 ( 10) -0.1014 ( 12) -0.1332 ( 16)
          -0.1013 ( 18) -0.1120 ( 19)  0.2218 ( 20) -0.1320 ( 24)  0.2111 ( 53)
          -0.1195 ( 54)  0.1678 ( 66) -0.1041 ( 67)  0.1858 ( 91)  0.1901 ( 95)
           0.1586 (102)  0.1031 (109)  0.2213 (110)  0.1389 (115)  0.1374 (116)
          -0.1752 (120) -0.1782 (124) -0.1072 (128)  0.1587 (129) -0.1542 (137)
          -0.1038 (139)  0.1014 (142)  0.1247 (145)  0.1267 (146) -0.1265 (147)
 CRD 43=  -0.1741 (  7) -0.1138 (  8) -0.1676 ( 16)  0.1442 ( 17)  0.2130 ( 19)
          -0.2557 ( 20)  0.1018 ( 48) -0.1436 ( 54) -0.1126 ( 55)  0.1061 ( 57)
          -0.1251 ( 58)  0.1110 ( 61) -0.1130 ( 64) -0.1597 ( 66)  0.1852 ( 67)
           0.1077 ( 75) -0.1166 ( 95)  0.1840 ( 96) -0.1348 ( 97)  0.1370 (102)
          -0.1223 (104) -0.1230 (105)  0.1503 (110)  0.1168 (115)  0.2806 (120)
          -0.1306 (127)  0.1280 (137) -0.1224 (138) -0.1724 (142)  0.2054 (147)
 CRD 44=  -0.1237 (  4) -0.1229 (  6)  0.1903 ( 12) -0.1487 ( 16)  0.3062 ( 18)
          -0.2232 ( 19) -0.1111 ( 39)  0.1214 ( 50) -0.1033 ( 54)  0.1216 ( 55)
           0.1008 ( 58) -0.1635 ( 59) -0.1310 ( 62)  0.2321 ( 65) -0.1713 ( 67)
           0.1179 ( 75) -0.1246 ( 83)  0.2128 ( 94) -0.1759 ( 95) -0.1270 (103)
          -0.1541 (111)  0.1933 (118) -0.1954 (119) -0.1062 (128) -0.1140 (136)
           0.1078 (144) -0.1454 (146)  0.2433 (148)
 CRD 45=   0.1416 (  4) -0.1004 (  5)  0.1308 (  6)  0.1680 (  7) -0.2591 ( 12)
           0.1168 ( 17)  0.1637 ( 18) -0.1080 ( 20) -0.1534 ( 27) -0.1039 ( 31)
          -0.2152 ( 39)  0.1614 ( 40)  0.1481 ( 56) -0.1335 ( 59)  0.1956 ( 62)
           0.1493 ( 65) -0.1034 ( 75) -0.1611 ( 95) -0.1328 (104) -0.1569 (106)
          -0.1011 (108)  0.1923 (111)  0.1116 (118) -0.1248 (119) -0.2091 (121)
           0.1066 (122) -0.2630 (135)  0.1037 (136) -0.1813 (137)  0.1345 (139)
           0.1463 (148)
 CRD 46=   0.2431 (  9)  0.1023 ( 11) -0.1496 ( 13) -0.1674 ( 14) -0.2205 ( 15)
           0.1753 ( 17) -0.1337 ( 18) -0.1173 ( 30) -0.1695 ( 32)  0.1843 ( 40)
          -0.2269 ( 50)  0.2401 ( 61)  0.1013 ( 66) -0.1398 ( 72)  0.1403 ( 75)
           0.1763 ( 92) -0.1096 ( 94)  0.1344 (122)  0.1225 (125) -0.1548 (132)
          -0.1515 (134)  0.1141 (138)  0.1317 (139)  0.1253 (141)  0.1286 (144)
           0.1450 (145)  0.1824 (149)
 CRD 47=  -0.2258 (  4) -0.1389 (  9)  0.2222 ( 10) -0.1443 ( 15)  0.2299 ( 16)
           0.1443 ( 23) -0.1402 ( 32)  0.2416 ( 33) -0.1025 ( 45) -0.1157 ( 48)
          -0.1926 ( 54) -0.1251 ( 72) -0.2094 ( 75)  0.1932 ( 84)  0.1749 ( 86)
          -0.1199 ( 88)  0.1130 ( 91) -0.1159 ( 98) -0.1226 (100) -0.1413 (106)
           0.1496 (110)  0.1586 (124)  0.1584 (125) -0.1251 (128)  0.1089 (129)
          -0.1252 (130) -0.2816 (131)
 CRD 48=   0.1600 (  4) -0.1066 (  5)  0.1196 (  6) -0.1370 ( 11)  0.1861 ( 13)
          -0.2560 ( 14)  0.1061 ( 31)  0.1011 ( 42)  0.1340 ( 45) -0.1126 ( 48)
           0.1170 ( 56) -0.2245 ( 62) -0.1021 ( 83)  0.2095 ( 87)  0.1049 ( 90)
           0.1476 ( 97) -0.2217 (103) -0.1016 (104)  0.1414 (107)  0.1010 (113)
           0.2924 (114) -0.1149 (117) -0.1048 (122)  0.1315 (127) -0.1639 (139)
           0.2183 (140)
 CRD 49=   0.1204 (  4)  0.1609 (  6) -0.1820 (  8) -0.1972 (  9)  0.1066 ( 12)
          -0.1454 ( 13)  0.1620 ( 27) -0.1172 ( 30)  0.1784 ( 45) -0.1341 ( 46)
          -0.1212 ( 61) -0.1030 ( 71) -0.1726 ( 73) -0.1971 ( 74) -0.1016 ( 75)
           0.1448 ( 76)  0.1265 ( 81)  0.1530 ( 82)  0.1120 ( 85) -0.1357 ( 97)
          -0.1241 ( 98) -0.1145 ( 99)  0.1278 (100)  0.1712 (102) -0.1991 (103)
          -0.2741 (105) -0.1171 (112)  0.1478 (113)  0.1797 (124)  0.1181 (138)
          -0.1270 (140)
 CRD 50=   0.1171 (  4) -0.1257 (  5)  0.2144 (  6)  0.1012 ( 11) -0.1176 ( 25)
           0.2023 ( 31) -0.1473 ( 34) -0.1523 ( 36) -0.1357 ( 41)  0.1362 ( 42)
          -0.1079 ( 47)  0.1390 ( 48) -0.1774 ( 57)  0.1596 ( 58) -0.1128 ( 60)
          -0.1256 ( 64)  0.1029 ( 73) -0.1130 ( 76) -0.1378 ( 79) -0.1337 ( 81)
          -0.1682 ( 83) -0.1127 ( 88) -0.1385 ( 92) -0.1019 ( 96) -0.1004 (101)
          -0.1566 (103) -0.1646 (107) -0.1588 (112)  0.1339 (113)  0.1956 (114)
          -0.1852 (127)  0.1196 (130) -0.1006 (136)  0.1075 (137) -0.1910 (145)
          -0.1063 (149)
 CRD 51=   0.1486 (  4)  0.1157 (  5) -0.3002 (  7) -0.1162 ( 23)  0.1023 ( 24)
          -0.1911 ( 37)  0.1359 ( 42)  0.1926 ( 44) -0.1133 ( 45) -0.1202 ( 75)
          -0.1013 ( 77) -0.1451 ( 91) -0.1175 ( 98) -0.1434 (100) -0.2207 (101)
          -0.2647 (102) -0.1061 (105) -0.3058 (106) -0.1814 (108)  0.1935 (109)
           0.2507 (112)  0.1085 (115)  0.2328 (116)  0.1967 (117)
 CRD 52=  -0.3225 ( 16) -0.4860 ( 17) -0.1356 ( 31)  0.2567 ( 39)  0.1885 ( 40)
          -0.4481 ( 50) -0.2421 ( 59)  0.1228 ( 65)  0.1402 ( 66)  0.1363 ( 67)
           0.1118 ( 78)
 CRD 53=  -0.1058 (  5)  0.1509 (  8) -0.1710 (  9)  0.1496 ( 11)  0.1026 ( 13)
           0.1138 ( 24) -0.1090 ( 25) -0.1195 ( 36) -0.1161 ( 44)  0.1163 ( 57)
          -0.1330 ( 58) -0.1994 ( 69) -0.1806 ( 78) -0.1224 ( 79)  0.1145 ( 80)
           0.1763 ( 81)  0.1349 ( 82) -0.1279 ( 83) -0.1435 ( 85) -0.1696 ( 88)
           0.1670 ( 89)  0.1087 ( 90) -0.1217 (102)  0.1659 (105) -0.2114 (107)
          -0.1357 (112)  0.2034 (124)  0.1078 (126) -0.2140 (127)  0.1218 (128)
          -0.1243 (129) -0.1185 (139)  0.1011 (145)
 CRD 54=  -0.1221 (  7) -0.2941 ( 14) -0.3920 ( 17) -0.1157 ( 32) -0.5333 ( 39)
           0.1120 ( 40)  0.4233 ( 50) -0.2283 ( 57) -0.1680 ( 58)  0.1284 ( 65)
           0.1078 ( 67) -0.1036 ( 72)

 THE DETERMINANT OF THE G MATRIX IS 10**(   -10)


                     --------------------
                     INTERNAL COORDINATES
                     --------------------

                 - - ATOMS - -         COORDINATE      COORDINATE
 NO.   TYPE    I  J  K  L  M  N        (BOHR,RAD)       (ANG,DEG)
 ----------------------------------------------------------------
   1 STRETCH   6 17                     3.9291310       2.0792068
   2 STRETCH   9 19                     3.7944115       2.0079163
   3 STRETCH  17 19                     3.7477147       1.9832053
   4 STRETCH   1  2                     2.8883901       1.5284703
   5 STRETCH   1  4                     2.0986211       1.1105426
   6 STRETCH   1 17                     7.5481642       3.9943168
   7 STRETCH   1  3                     2.8667782       1.5170338
   8 STRETCH   1  5                     2.1083226       1.1156764
   9 STRETCH   2  6                     2.8851304       1.5267454
  10 STRETCH   2  7                     2.0981622       1.1102997
  11 STRETCH   2  8                     2.1008092       1.1117004
  12 STRETCH   3 11                     2.0989662       1.1107252
  13 STRETCH   3 10                     2.1034443       1.1130949
  14 STRETCH   3  9                     2.8327053       1.4990032
  15 STRETCH   6 12                     2.0931796       1.1076630
  16 STRETCH   6  9                     2.5746139       1.3624271
  17 STRETCH   9 13                     2.8455179       1.5057833
  18 STRETCH  13 15                     2.0989024       1.1106914
  19 STRETCH  13 14                     2.0970927       1.1097337
  20 STRETCH  13 16                     2.0970601       1.1097165
  21 STRETCH  17 20                     2.2396644       1.1851795
  22 STRETCH  17 18                     2.2365026       1.1835063
  23 BEND      1  2  6                  1.7814023     102.0668315
  24 BEND      1  2  7                  1.9476810     111.5939026
  25 BEND      1  2  8                  1.9081692     109.3300393
  26 BEND      1 17  6                  0.4926487      28.2266910
  27 BEND      1  3 10                  1.8896692     108.2700674
  28 BEND      1 17 18                  1.6607995      95.1568001
  29 BEND      1 17 20                  2.4198343     138.6462901
  30 BEND      1  3 11                  1.9967356     114.4045252
  31 BEND      1  3  9                  1.7350940      99.4135643
  32 BEND      2  6  9                  1.8736292     107.3510473
  33 BEND      2  6 12                  2.1954154     125.7880384
  34 BEND      2  1  3                  1.7750675     101.7038752
  35 BEND      2  1 17                  0.6220504      35.6408598
  36 BEND      2  1  5                  1.8899206     108.2844755
  37 BEND      2  1  4                  2.0027633     114.7498827
  38 BEND      2  6 17                  1.8440820     105.6581181
  39 BEND      3  9 13                  2.1660400     124.1049488
  40 BEND      3  9  6                  1.9325288     110.7257420
  41 BEND      3  1 17                  1.1540921      66.1246054
  42 BEND      3  1  4                  2.0149831     115.4500255
  43 BEND      3  9 19                  1.6763642      96.0485939
  44 BEND      3  1  5                  1.8800273     107.7176270
  45 BEND      4  1  5                  1.8933042     108.4783424
  46 BEND      4  1 17                  2.2403647     128.3634442
  47 BEND      5  1 17                  2.0982886     120.2230830
  48 BEND      6  2  7                  1.9894566     113.9874650
  49 BEND      6  9 19                  1.5801886      90.5381387
  50 BEND      6  9 13                  2.1693272     124.2932910
  51 BEND      6 17 18                  2.0458289     117.2173612
  52 BEND      6 17 20                  1.9282332     110.4796238
  53 BEND      6  2  8                  1.9226321     110.1587033
  54 BEND      7  2  8                  1.9104340     109.4598029
  55 BEND      9  3 10                  1.9112851     109.5085689
  56 BEND      9  3 11                  2.0052430     114.8919615
  57 BEND      9 13 16                  1.9187948     109.9388446
  58 BEND      9 13 14                  1.9093459     109.3974636
  59 BEND      9 13 15                  1.9386302     111.0753280
  60 BEND      9  6 17                  1.8585342     106.4861651
  61 BEND      9  6 12                  2.0530029     117.6284021
  62 BEND     10  3 11                  1.9162929     109.7954927
  63 BEND     12  6 17                  1.5639450      89.6074475
  64 BEND     13  9 19                  1.6186119      92.7396330
  65 BEND     14 13 16                  1.8992743     108.8204043
  66 BEND     14 13 15                  1.8990957     108.8101687
  67 BEND     15 13 16                  1.8981602     108.7565703
  68 BEND     18 17 20                  2.0131768     115.3465362
  69 TORSION   1  2  6  9               0.3058372      17.5231835
  70 TORSION   1  2  6 17               2.2841703     130.8733181
  71 TORSION   1  3  9 19              -2.2009890    -126.1073810
  72 TORSION   1 17  6  9               1.3474759      77.2046803
  73 TORSION   1  3  9 13               2.3812291     136.4343791
  74 TORSION   1  3  9  6              -0.5799793     -33.2303661
  75 TORSION   1 17  6 12              -2.8624322    -164.0052827
  76 TORSION   1  2  6 12              -2.2336969    -127.9814040
  77 TORSION   1 17  6  2              -0.6413418     -36.7461785
  78 TORSION   2  1 17 20               1.3332328      76.3886104
  79 TORSION   2  1 17 18              -1.0903199     -62.4707304
  80 TORSION   2  6  9 19               1.8604268     106.5946037
  81 TORSION   2  6  9 13              -2.7876552    -159.7208754
  82 TORSION   2  6  9  3               0.1731454       9.9205012
  83 TORSION   2  1  3 10              -1.2628216     -72.3543467
  84 TORSION   2  6 17 18               0.0897940       5.1448199
  85 TORSION   2  1  3  9               0.7317569      41.9265832
  86 TORSION   2  6 17 20               2.4443634     140.0517046
  87 TORSION   2  1  3 11               2.8774378     164.8650435
  88 TORSION   2  1 17  6               1.4125159      80.9311999
  89 TORSION   3  1  2  6              -0.6494446     -37.2104327
  90 TORSION   3  1 17 18               2.1141358     121.1310574
  91 TORSION   3  1  2  8               1.3863827      79.4338747
  92 TORSION   3  9  6 17              -1.7954115    -102.8695040
  93 TORSION   3  9  6 12               2.7696029     158.6865580
  94 TORSION   3  9 13 16               1.1274773      64.5996920
  95 TORSION   3  9 13 14              -0.9571945     -54.8432046
  96 TORSION   3  9 13 15              -3.0539406    -174.9779085
  97 TORSION   3  1  2  7              -2.7808658    -159.3318733
  98 TORSION   3  1 17  6              -1.6662137     -95.4670123
  99 TORSION   3  1 17 20              -1.7454968    -100.0096018
 100 TORSION   4  1  2  6              -2.8374208    -162.5722365
 101 TORSION   4  1 17 18               0.2917122      16.7138785
 102 TORSION   4  1  2  8              -0.8015936     -45.9279292
 103 TORSION   4  1  3 10               0.9170186      52.5412965
 104 TORSION   4  1  3  9               2.9115971     166.8222264
 105 TORSION   4  1  3 11              -1.2259073     -70.2393133
 106 TORSION   4  1 17  6               2.7945480     160.1158089
 107 TORSION   4  1  2  7               1.3143433      75.3063229
 108 TORSION   4  1 17 20               2.7152649     155.5732194
 109 TORSION   5  1 17 18              -2.4706009    -141.5550028
 110 TORSION   5  1  2  8              -2.9191076    -167.2525483
 111 TORSION   5  1  3 10               3.0352841     173.9089703
 112 TORSION   5  1  2  7              -0.8031708     -46.0182962
 113 TORSION   5  1  3  9              -1.2533227     -71.8100998
 114 TORSION   5  1  3 11               0.8923582      51.1283605
 115 TORSION   5  1 17  6               0.0322350       1.8469275
 116 TORSION   5  1 17 20              -0.0470482      -2.6956620
 117 TORSION   5  1  2  6               1.3282504      76.1031444
 118 TORSION   6  9 13 16              -2.2186423    -127.1188374
 119 TORSION   6  9 13 14               1.9798712     113.4382661
 120 TORSION   6  9 13 15              -0.1168749      -6.6964378
 121 TORSION   6  9  3 10               1.3978297      80.0897439
 122 TORSION   6  9  3 11              -2.7195947    -155.8212992
 123 TORSION   6  2  1 17              -0.7081439     -40.5736543
 124 TORSION   7  2  6 12              -0.1311538      -7.5145610
 125 TORSION   7  2  6  9               2.4083803     137.9900265
 126 TORSION   7  2  6 17              -1.8964720    -108.6598389
 127 TORSION   7  2  1 17              -2.8395651    -162.6950949
 128 TORSION   8  2  6 12               2.0241444     115.9749339
 129 TORSION   8  2  1 17               1.3276834      76.0706531
 130 TORSION   8  2  6  9              -1.7195067     -98.5204785
 131 TORSION   8  2  6 17               0.2588263      14.8296560
 132 TORSION   9  6 17 18               2.0786117     119.0956787
 133 TORSION   9  3  1 17               0.7691492      44.0690043
 134 TORSION   9  6 17 20              -1.8500043    -105.9974366
 135 TORSION  10  3  9 19              -0.2231800     -12.7872710
 136 TORSION  10  3  1 17              -1.2254293     -70.2119256
 137 TORSION  10  3  9 13              -1.9241472    -110.2455109
 138 TORSION  11  3  9 19               1.9425809     111.3016860
 139 TORSION  11  3  9 13               0.2416137      13.8434461
 140 TORSION  11  3  1 17               2.9148301     167.0074645
 141 TORSION  12  6 17 18              -2.1312963    -122.1142843
 142 TORSION  12  6  9 13              -0.1911977     -10.9548186
 143 TORSION  12  6  9 19              -1.8263010    -104.6393396
 144 TORSION  12  6 17 20               0.2232730      12.7926004
 145 TORSION  13  9  6 17               1.5269732      87.4891194
 146 TORSION  14 13  9 19              -2.6884878    -154.0390070
 147 TORSION  15 13  9 19               1.4979513      85.8262891
 148 TORSION  16 13  9 19              -0.6038160     -34.5961105
 149 TORSION  17  6  9 19              -0.1081302      -6.1954015

     ------------------------------------------
     THE POINT GROUP IS C1 , NAXIS= 0, ORDER= 1
     ------------------------------------------

     DIMENSIONS OF THE SYMMETRY SUBSPACES ARE
 A   =   48

 ..... DONE SETTING UP THE RUN .....
 STEP CPU TIME =     0.05 TOTAL CPU TIME =          0.0 (      0.0 MIN)
 TOTAL WALL CLOCK TIME=          0.1 SECONDS, CPU UTILIZATION IS    83.33%


          -----------------------------
          STATIONARY POINT LOCATION RUN
          -----------------------------


           ** GEOMETRY CONSTRAINTS ARE BEING APPLIED. **

          TRANSFORMING DISPLACEMENT FROM INTERNALS TO CARTESIANS
          THE ROOT MEAN SQUARE ERROR IN ITERATION   1 IS   0.00000238
          THE ROOT MEAN SQUARE ERROR IN ITERATION   2 IS   0.00000000
 WARNING! THE RADIUS IN CARTESIANS IS    0.00780
 OBTAINING INITIAL HESSIAN, HESS=CALC    

     ---------------------------------
     HESSIAN MATRIX CONTROL PARAMETERS
     ---------------------------------
     METHOD=ANALYTIC   NVIB  =       2   VIBSIZ= 0.01000
     RDHESS=       F   PURIFY=       F   PRTIFC=       F
     VIBANL=       F   DECOMP=       F   PROJCT=       F
     SCLFAC= 1.00000   PRTSCN=       F   NPRT  =       0
     PULCOR=       F   NPUN  =       0   REDOVB=       T
     HSSTYP=GENERAL 
 Old integral subroutine is used

     ------------------------------
     CPHF RESPONSE SOLUTION OPTIONS
     ------------------------------
     POLAR  =       F     NWORD  =       0
     CPHF   =AO      

          ********************
          1 ELECTRON INTEGRALS
          ********************
 ...... END OF ONE-ELECTRON INTEGRALS ......
 STEP CPU TIME =     0.03 TOTAL CPU TIME =          0.1 (      0.0 MIN)
 TOTAL WALL CLOCK TIME=          0.1 SECONDS, CPU UTILIZATION IS    80.00%

          -------------
          GUESS OPTIONS
          -------------
          GUESS =HUCKEL            NORB  =       0          NORDER=       0
          MIX   =       F          PRTMO =       F          PUNMO =       F
          TOLZ  = 1.0E-08          TOLE  = 1.0E-05
          SYMDEN=       F          PURIFY=       F

 INITIAL GUESS ORBITALS GENERATED BY HUCKEL   ROUTINE.
 HUCKEL GUESS REQUIRES     39252 WORDS.

 SYMMETRIES FOR INITIAL GUESS ORBITALS FOLLOW.   BOTH SET(S).
    27 ORBITALS ARE OCCUPIED (    7 CORE ORBITALS).
     8=A        9=A       10=A       11=A       12=A       13=A       14=A   
    15=A       16=A       17=A       18=A       19=A       20=A       21=A   
    22=A       23=A       24=A       25=A       26=A       27=A       28=A   
    29=A       30=A       31=A       32=A       33=A       34=A       35=A   
    36=A       37=A   
 ...... END OF INITIAL ORBITAL SELECTION ......
 STEP CPU TIME =     0.02 TOTAL CPU TIME =          0.1 (      0.0 MIN)
 TOTAL WALL CLOCK TIME=          0.1 SECONDS, CPU UTILIZATION IS    90.91%

                    ----------------------
                    AO INTEGRAL TECHNOLOGY
                    ----------------------
     S,P,L SHELL ROTATED AXIS INTEGRALS, REPROGRAMMED BY
        KAZUYA ISHIMURA (IMS) AND JOSE SIERRA (SYNSTAR).
     S,P,D,L SHELL ROTATED AXIS INTEGRALS PROGRAMMED BY
        KAZUYA ISHIMURA (INSTITUTE FOR MOLECULAR SCIENCE).
     S,P,D,F,G SHELL TO TOTAL QUARTET ANGULAR MOMENTUM SUM 5,
        ERIC PROGRAM BY GRAHAM FLETCHER (ELORET AND NASA ADVANCED
        SUPERCOMPUTING DIVISION, AMES RESEARCH CENTER).
     S,P,D,F,G,L SHELL GENERAL RYS QUADRATURE PROGRAMMED BY
        MICHEL DUPUIS (PACIFIC NORTHWEST NATIONAL LABORATORY).

          --------------------
          2 ELECTRON INTEGRALS
          --------------------

 THE -PK- OPTION IS OFF, THE INTEGRALS ARE NOT IN SUPERMATRIX FORM.
 STORING   15000 INTEGRALS/RECORD ON DISK, USING 12 BYTES/INTEGRAL.
 TWO ELECTRON INTEGRAL EVALUATION REQUIRES   89734 WORDS OF MEMORY.
 SCHWARZ INEQUALITY OVERHEAD:      1167 INTEGRALS, T=        0.00
 II,JST,KST,LST =  1  1  1  1 NREC =         1 INTLOC =    1
 II,JST,KST,LST =  2  1  1  1 NREC =         1 INTLOC =    2
 II,JST,KST,LST =  3  1  1  1 NREC =         1 INTLOC =   34
 II,JST,KST,LST =  4  1  1  1 NREC =         1 INTLOC =  139
 II,JST,KST,LST =  5  1  1  1 NREC =         1 INTLOC = 1350
 II,JST,KST,LST =  6  1  1  1 NREC =         1 INTLOC = 1927
 II,JST,KST,LST =  7  1  1  1 NREC =         1 INTLOC = 6807
 II,JST,KST,LST =  8  1  1  1 NREC =         1 INTLOC = 8838
 II,JST,KST,LST =  9  1  1  1 NREC =         1 INTLOC =11280
 II,JST,KST,LST = 10  1  1  1 NREC =         1 INTLOC =13749
 II,JST,KST,LST = 11  1  1  1 NREC =         3 INTLOC =  748
 II,JST,KST,LST = 12  1  1  1 NREC =         3 INTLOC = 6745
 II,JST,KST,LST = 13  1  1  1 NREC =         3 INTLOC =13577
 II,JST,KST,LST = 14  1  1  1 NREC =         4 INTLOC = 5480
 II,JST,KST,LST = 15  1  1  1 NREC =         7 INTLOC = 1489
 II,JST,KST,LST = 16  1  1  1 NREC =         7 INTLOC =14804
 II,JST,KST,LST = 17  1  1  1 NREC =         8 INTLOC =14487
 II,JST,KST,LST = 18  1  1  1 NREC =        10 INTLOC =  647
 II,JST,KST,LST = 19  1  1  1 NREC =        11 INTLOC =  154
 II,JST,KST,LST = 20  1  1  1 NREC =        16 INTLOC =12345
 II,JST,KST,LST = 21  1  1  1 NREC =        18 INTLOC = 9030
 II,JST,KST,LST = 22  1  1  1 NREC =        20 INTLOC = 7769
 II,JST,KST,LST = 23  1  1  1 NREC =        22 INTLOC = 8576
 II,JST,KST,LST = 24  1  1  1 NREC =        24 INTLOC = 4054
 II,JST,KST,LST = 25  1  1  1 NREC =        34 INTLOC =13461
 II,JST,KST,LST = 26  1  1  1 NREC =        37 INTLOC =14322
 II,JST,KST,LST = 27  1  1  1 NREC =        41 INTLOC = 5004
 SCHWARZ INEQUALITY TEST SKIPPED        8523 INTEGRAL BLOCKS.
 TOTAL NUMBER OF NONZERO TWO-ELECTRON INTEGRALS =              656399
         44 INTEGRAL RECORDS WERE STORED ON DISK FILE  8.
  ...... END OF TWO-ELECTRON INTEGRALS .....
 STEP CPU TIME =     0.17 TOTAL CPU TIME =          0.3 (      0.0 MIN)
 TOTAL WALL CLOCK TIME=          0.3 SECONDS, CPU UTILIZATION IS    93.10%

          --------------------------
                 RHF SCF CALCULATION
          --------------------------

     NUCLEAR ENERGY =       301.8404820667
     MAXIT =   30     NPUNCH=    2
     EXTRAP=T  DAMP=F  SHIFT=F  RSTRCT=F  DIIS=F  DEM=F  SOSCF=T
     DENSITY MATRIX CONV=  1.00E-05
     SOSCF WILL OPTIMIZE     567 ORBITAL ROTATIONS, SOGTOL=   0.250
     MEMORY REQUIRED FOR RHF ITERS=     49068 WORDS.

 ITER EX DEM     TOTAL ENERGY        E CHANGE  DENSITY CHANGE     ORB. GRAD
   1  0  0     -255.6970339774  -255.6970339774   0.306887430   0.000000000
          ---------------START SECOND ORDER SCF---------------
   2  1  0     -256.0615595371    -0.3645255596   0.116764670   0.035637586
   3  2  0     -256.0836392252    -0.0220796881   0.047402199   0.019677978
   4  3  0     -256.0882916259    -0.0046524007   0.010820712   0.003391290
   5  4  0     -256.0886518566    -0.0003602307   0.014759842   0.002350347
   6  5  0     -256.0888018257    -0.0001499691   0.013460472   0.001261751
   7  6  0     -256.0888674790    -0.0000656533   0.003034208   0.000385998
   8  7  0     -256.0888761886    -0.0000087096   0.000799195   0.000141118
   9  8  0     -256.0888774236    -0.0000012350   0.000223180   0.000063830
  10  9  0     -256.0888775430    -0.0000001194   0.000075366   0.000017708
  11 10  0     -256.0888775589    -0.0000000159   0.000025061   0.000008338
  12 11  0     -256.0888775603    -0.0000000014   0.000009102   0.000002374
  13 12  0     -256.0888775604    -0.0000000001   0.000001638   0.000000412

          -----------------
          DENSITY CONVERGED
          -----------------
     TIME TO FORM FOCK OPERATORS=       0.1 SECONDS (       0.0 SEC/ITER)
     TIME TO SOLVE SCF EQUATIONS=       0.0 SECONDS (       0.0 SEC/ITER)

 FINAL RHF ENERGY IS     -256.0888775604 AFTER  13 ITERATIONS

          ------------
          EIGENVECTORS
          ------------

                      1          2          3          4          5
                  -11.1392   -11.0826   -11.0771   -11.0595   -11.0494
                     A          A          A          A          A   
    1  C  1  S   -0.000772   0.000038  -0.005812   0.991861   0.013022
    2  C  1  S   -0.000022  -0.000007  -0.006071   0.037199  -0.005309
    3  C  1  X    0.000489   0.000002   0.002052  -0.000780   0.002850
    4  C  1  Y    0.000055  -0.000011   0.003460  -0.000276  -0.003189
    5  C  1  Z    0.000292  -0.000011  -0.001546  -0.000284  -0.000161
    6  C  2  S   -0.000394  -0.000115  -0.002035  -0.012069   0.991898
    7  C  2  S    0.000151  -0.000046  -0.000071  -0.006192   0.037029
    8  C  2  X   -0.000020   0.000013   0.000189  -0.003028  -0.000006
    9  C  2  Y    0.000152   0.000049   0.000232   0.002978  -0.000639
   10  C  2  Z   -0.000061  -0.000022  -0.000242   0.000172   0.000089
   11  C  3  S   -0.001049  -0.001616   0.991888   0.006732   0.002241
   12  C  3  S   -0.005787   0.000068   0.037590  -0.005615   0.000008
   13  C  3  X    0.003612   0.000002  -0.000648  -0.002387   0.000199
   14  C  3  Y   -0.000484  -0.000116   0.000899  -0.003294  -0.000324
   15  C  3  Z    0.002007  -0.000058  -0.000453   0.001467  -0.000071
   16  H  4  S   -0.000207   0.000004   0.000168  -0.006646   0.000035
   17  H  5  S   -0.000193   0.000029   0.000051  -0.006784  -0.000061
   18  C  6  S    0.002253  -0.000136  -0.000380  -0.000637  -0.002207
   19  C  6  S   -0.007250   0.000158   0.000222   0.000191  -0.005885
   20  C  6  X   -0.000757  -0.000095   0.000059  -0.000068  -0.003546
   21  C  6  Y    0.004386  -0.000051  -0.000005   0.000103  -0.002113
   22  C  6  Z   -0.000381  -0.000093  -0.000080   0.000104  -0.001097
   23  H  7  S   -0.000065  -0.000011  -0.000148   0.000195  -0.006696
   24  H  8  S    0.000001   0.000005   0.000086   0.000099  -0.006757
   25  C  9  S    0.992335   0.002456   0.001985   0.000934   0.000487
   26  C  9  S    0.035076  -0.005959  -0.006185  -0.000101   0.000269
   27  C  9  X    0.000309   0.002348  -0.003848  -0.000271  -0.000025
   28  C  9  Y    0.001614   0.003221   0.000785  -0.000262   0.000018
   29  C  9  Z   -0.000104   0.002032  -0.002166   0.000153  -0.000068
   30  H 10  S   -0.000043   0.000036  -0.006759  -0.000040  -0.000010
   31  H 11  S    0.000056  -0.000114  -0.006665   0.000079  -0.000176
   32  H 12  S    0.000072  -0.000069  -0.000085  -0.000011   0.000069
   33  C 13  S   -0.001509   0.991984   0.001622  -0.000032   0.000129
   34  C 13  S   -0.005560   0.037370   0.000240  -0.000048  -0.000061
   35  C 13  X   -0.002097   0.000363   0.000082   0.000012  -0.000010
   36  C 13  Y   -0.003034   0.000237  -0.000033  -0.000001  -0.000056
   37  C 13  Z   -0.001713   0.000145   0.000052  -0.000067  -0.000025
   38  H 14  S   -0.000121  -0.006775  -0.000045   0.000014  -0.000003
   39  H 15  S    0.000025  -0.006684  -0.000059  -0.000001  -0.000026
   40  H 16  S   -0.000055  -0.006705  -0.000059  -0.000003   0.000001
   41  B 17  S    0.000007  -0.000004  -0.000006   0.000004   0.000013
   42  B 17  S    0.000113   0.000018   0.000031  -0.000033  -0.000001
   43  B 17  X   -0.000046   0.000013   0.000033  -0.000006  -0.000039
   44  B 17  Y    0.000084  -0.000012  -0.000013  -0.000012  -0.000088
   45  B 17  Z    0.000097   0.000002   0.000002   0.000041  -0.000052
   46  H 18  S   -0.000062  -0.000005  -0.000002  -0.000005   0.000149
   47  H 19  S   -0.001801  -0.000051   0.000048  -0.000022   0.000015
   48  H 20  S   -0.000015   0.000016   0.000003   0.000012  -0.000023

                      6          7          8          9         10
                  -10.9968    -7.3824    -1.1347    -0.9976    -0.9351
                     A          A          A          A          A   
    1  C  1  S    0.000752   0.000004  -0.093139   0.111090  -0.055162
    2  C  1  S    0.000149  -0.000054   0.237509  -0.308913   0.158384
    3  C  1  X    0.000222   0.000034  -0.061500   0.036710   0.016241
    4  C  1  Y    0.000132  -0.000040  -0.015822  -0.013916  -0.109947
    5  C  1  Z    0.000135   0.000047   0.007951  -0.006667   0.027074
    6  C  2  S    0.003176   0.000026  -0.082834   0.086668   0.105929
    7  C  2  S   -0.005638   0.000216   0.210925  -0.238679  -0.305610
    8  C  2  X    0.003444   0.000193  -0.007253  -0.041251   0.073155
    9  C  2  Y    0.002120  -0.000017  -0.057443   0.036375   0.002731
   10  C  2  Z    0.001237   0.000052  -0.006984  -0.003563   0.020404
   11  C  3  S    0.000454  -0.000008  -0.112548   0.034660  -0.145619
   12  C  3  S    0.000227   0.000031   0.292072  -0.093359   0.423898
   13  C  3  X    0.000010  -0.000030  -0.036814  -0.066212   0.021788
   14  C  3  Y   -0.000154  -0.000004   0.050803  -0.056952  -0.005759
   15  C  3  Z   -0.000097   0.000035  -0.043336  -0.004708  -0.010459
   16  H  4  S   -0.000148   0.000002   0.036900  -0.071587   0.046608
   17  H  5  S   -0.000102  -0.000008   0.046402  -0.070545   0.041480
   18  C  6  S    0.991959   0.000533  -0.103349  -0.020028   0.138896
   19  C  6  S    0.037045  -0.003012   0.252448   0.056002  -0.383052
   20  C  6  X    0.001187   0.001892   0.050839  -0.043832  -0.037015
   21  C  6  Y   -0.002588  -0.000766  -0.062952  -0.075104   0.002832
   22  C  6  Z   -0.000308  -0.002126   0.016846  -0.014797  -0.001996
   23  H  7  S    0.000018  -0.000024   0.032794  -0.054180  -0.082669
   24  H  8  S   -0.000003  -0.000734   0.037041  -0.055514  -0.075963
   25  C  9  S   -0.001588   0.000029  -0.138824  -0.103114   0.006850
   26  C  9  S   -0.008140   0.000074   0.360788   0.292021  -0.017478
   27  C  9  X    0.000958  -0.000008   0.042749  -0.084211   0.097103
   28  C  9  Y   -0.004801  -0.000035   0.053140  -0.063341  -0.160600
   29  C  9  Z    0.000761   0.000119   0.004722  -0.062507   0.054746
   30  H 10  S   -0.000013  -0.000031   0.052525  -0.025642   0.107502
   31  H 11  S   -0.000107   0.000002   0.048385  -0.014800   0.129258
   32  H 12  S   -0.006578  -0.000608   0.042137   0.022618  -0.106532
   33  C 13  S    0.000155  -0.000004  -0.053499  -0.155522  -0.027556
   34  C 13  S    0.000278   0.000026   0.143944   0.436428   0.079366
   35  C 13  X    0.000024   0.000007   0.026933   0.031519   0.016931
   36  C 13  Y    0.000096   0.000029   0.033385   0.039836  -0.018740
   37  C 13  Z    0.000036  -0.000015   0.019009   0.020333   0.008059
   38  H 14  S   -0.000009  -0.000004   0.027232   0.107319   0.030942
   39  H 15  S   -0.000110  -0.000073   0.024922   0.103833   0.008208
   40  H 16  S   -0.000022   0.000089   0.024432   0.101058   0.028524
   41  B 17  S    0.000409   0.991085  -0.007589  -0.003251   0.017443
   42  B 17  S   -0.002695   0.035261   0.015535   0.007595  -0.038166
   43  B 17  X   -0.001889  -0.000407   0.006160   0.001269  -0.012633
   44  B 17  Y    0.000719   0.001710  -0.002027  -0.004045  -0.001113
   45  B 17  Z    0.001763  -0.000556  -0.005629  -0.002926   0.013731
   46  H 18  S    0.000156  -0.006343   0.002911  -0.000353  -0.011385
   47  H 19  S    0.000013  -0.002542   0.007795   0.010852  -0.003301
   48  H 20  S    0.000281  -0.006380   0.002488   0.002395  -0.010492

                     11         12         13         14         15
                   -0.8840    -0.7642    -0.6882    -0.6383    -0.6292
                     A          A          A          A          A   
    1  C  1  S   -0.097553  -0.119991  -0.000422  -0.011644  -0.016366
    2  C  1  S    0.291146   0.380419   0.001306   0.038556   0.054869
    3  C  1  X    0.017497   0.119473  -0.082555  -0.086975   0.209100
    4  C  1  Y    0.083912  -0.045139   0.099911   0.025094   0.123330
    5  C  1  Z   -0.016516  -0.074069  -0.082438   0.208534   0.133794
    6  C  2  S   -0.091879   0.113450  -0.025981   0.019610  -0.006962
    7  C  2  S    0.270545  -0.356248   0.080209  -0.065708   0.024325
    8  C  2  X    0.090121   0.059859   0.109098  -0.003515   0.118994
    9  C  2  Y    0.011147  -0.114057  -0.024738  -0.167585   0.156475
   10  C  2  Z    0.006191  -0.053205   0.004709   0.190460   0.143325
   11  C  3  S    0.066926   0.071175   0.057282   0.009963   0.015959
   12  C  3  S   -0.197828  -0.226113  -0.192190  -0.034322  -0.049119
   13  C  3  X    0.083829   0.088725  -0.209919  -0.051625  -0.035944
   14  C  3  Y    0.027067   0.102497   0.076803   0.278079  -0.068527
   15  C  3  Z   -0.001196  -0.087134  -0.160825   0.176371   0.134397
   16  H  4  S    0.099146   0.164693  -0.058524   0.040845   0.221401
   17  H  5  S    0.086985   0.194299   0.030538  -0.162639  -0.057562
   18  C  6  S    0.070818  -0.039903   0.090197   0.008637   0.034063
   19  C  6  S   -0.194394   0.112299  -0.297455  -0.040107  -0.106368
   20  C  6  X    0.019195  -0.075949   0.154971   0.054991  -0.172568
   21  C  6  Y    0.098548  -0.134512  -0.141275  -0.105788  -0.068669
   22  C  6  Z   -0.006553  -0.065437   0.080894   0.159735   0.042282
   23  H  7  S    0.093022  -0.146299   0.031120  -0.204580   0.053475
   24  H  8  S    0.078871  -0.175565   0.015956   0.066201   0.149093
   25  C  9  S    0.075111  -0.025033  -0.107837   0.016880  -0.064717
   26  C  9  S   -0.226427   0.076946   0.365126  -0.068706   0.230328
   27  C  9  X   -0.086753  -0.098392   0.103344  -0.015754  -0.206913
   28  C  9  Y   -0.149979   0.136164  -0.072484   0.198457  -0.145198
   29  C  9  Z   -0.068083  -0.097683   0.017724   0.108503  -0.003157
   30  H 10  S   -0.061050  -0.127906  -0.153024   0.144858   0.083124
   31  H 11  S   -0.051108  -0.103674  -0.165088  -0.236421  -0.008382
   32  H 12  S   -0.050669   0.074576  -0.258919  -0.140653  -0.003794
   33  C 13  S   -0.136692   0.014544   0.025533  -0.022142   0.023827
   34  C 13  S    0.404132  -0.046429  -0.082447   0.078177  -0.082922
   35  C 13  X   -0.022412  -0.013924   0.129014  -0.171641   0.055149
   36  C 13  Y   -0.046612   0.064276   0.072910  -0.080061   0.206712
   37  C 13  Z   -0.028379  -0.014052   0.085997  -0.043183   0.194603
   38  H 14  S    0.134876  -0.035508  -0.043238  -0.000734  -0.189066
   39  H 15  S    0.124048   0.012411  -0.119914   0.120153  -0.077258
   40  H 16  S    0.126069  -0.045639  -0.052698   0.087509  -0.046693
   41  B 17  S    0.009695   0.000101   0.060966  -0.015566  -0.073294
   42  B 17  S   -0.022493  -0.000645  -0.149190   0.041338   0.186576
   43  B 17  X   -0.006577  -0.006895  -0.000916   0.012149  -0.011250
   44  B 17  Y    0.003909  -0.007354  -0.020474  -0.003936   0.012133
   45  B 17  Z    0.008266  -0.010450   0.031619   0.011579   0.000770
   46  H 18  S   -0.003630  -0.011289  -0.064792   0.026654   0.101469
   47  H 19  S   -0.011014  -0.004076  -0.006900   0.029260   0.073498
   48  H 20  S   -0.006335   0.005676  -0.080276   0.008108   0.100139

                     16         17         18         19         20
                   -0.5992    -0.5635    -0.5511    -0.5306    -0.5014
                     A          A          A          A          A   
    1  C  1  S   -0.010193  -0.002581   0.012829   0.001681   0.022327
    2  C  1  S    0.034954   0.008961  -0.043890  -0.006193  -0.086983
    3  C  1  X   -0.045907   0.012391  -0.134701   0.041012   0.335230
    4  C  1  Y   -0.050446   0.029456  -0.050867  -0.160952   0.088112
    5  C  1  Z   -0.129234  -0.127434  -0.145988   0.059468  -0.134784
    6  C  2  S    0.013307   0.003381  -0.015937  -0.007932   0.006490
    7  C  2  S   -0.045772  -0.011356   0.053127   0.027784  -0.026692
    8  C  2  X   -0.060399   0.001181   0.073593  -0.177563  -0.069057
    9  C  2  Y   -0.060925  -0.006916   0.056055  -0.016075   0.125106
   10  C  2  Z    0.004394  -0.168425  -0.062975   0.318458  -0.057200
   11  C  3  S    0.013324  -0.000322  -0.019080   0.007141   0.015266
   12  C  3  S   -0.049062  -0.000316   0.068380  -0.024052  -0.062626
   13  C  3  X   -0.077964  -0.075350   0.063596   0.219122  -0.057182
   14  C  3  Y    0.031654  -0.019357  -0.037661  -0.128573  -0.268373
[...]
 19   H            X -0.02164978  0.00463483 -0.00312944  0.00110250  0.00792290
                   Y  0.01538381 -0.00440224  0.00121305 -0.00041665  0.00265341
                   Z  0.01982912 -0.00357790  0.00385986 -0.00117203  0.00603787
 20   H            X  0.00373324 -0.00318534 -0.00306648  0.64264577  0.60530173
                   Y  0.00396873 -0.00272529  0.00062721 -0.04793552 -0.04556675
                   Z -0.01140840  0.00747436  0.00656490  0.25670894  0.24292372

 TRANS. SAYVETZ    X  0.00000049  0.00000004 -0.00000063 -0.00000024 -0.00000004
                   Y -0.00000071  0.00000024  0.00000034 -0.00000010  0.00000002
                   Z -0.00000089  0.00000034 -0.00000010  0.00000004  0.00000000
               TOTAL  0.00000124  0.00000042  0.00000073  0.00000026  0.00000004

   ROT. SAYVETZ    X -0.00386017 -0.00385097 -0.00526308  0.00405219 -0.01616410
                   Y -0.00606176 -0.00189755 -0.00404357  0.00135581 -0.01486961
                   Z -0.00368223 -0.00231178 -0.00324784  0.00323250  0.02623864
               TOTAL  0.00807494  0.00487596  0.00738911  0.00535795  0.03421768

                           51          52          53          54          55
       FREQUENCY:      3565.98     3608.75     3619.81     3629.33     3720.39  
        SYMMETRY:         A           A           A           A           A   
    REDUCED MASS:      1.03937     1.06616     1.06704     1.06899     1.11102
    IR INTENSITY:      0.00976     0.06396     0.06095     0.01783     0.00699

  1   C            X  0.00005916 -0.01551840  0.06461951  0.02356108  0.00288388
                   Y  0.00001117 -0.00220552 -0.00360065  0.00057959  0.00424875
                   Z  0.00001604  0.00141751 -0.00776852 -0.00526437  0.01240924
  2   C            X  0.00004397  0.01402250  0.00051950  0.00035926  0.02486560
                   Y  0.00009256  0.06725308  0.01663045  0.00680188 -0.00791982
                   Z -0.00001013 -0.00179464  0.00088690  0.00075034 -0.08700780
  3   C            X  0.00012179  0.00060598 -0.00817819  0.01615209  0.00000462
                   Y -0.00004564  0.00051718  0.01878643 -0.05610197 -0.00056201
                   Z  0.00013415 -0.00043746 -0.01002189  0.03406853  0.00074745
  4   H            X -0.00058610  0.10096591 -0.36437670 -0.11842995 -0.06949247
                   Y -0.00028130  0.04402836 -0.15812134 -0.05280015 -0.03091100
                   Z -0.00071157  0.11811309 -0.43316398 -0.14239814 -0.08049340
  5   H            X -0.00024800  0.08555972 -0.35345469 -0.12860139  0.03524904
                   Y  0.00015883 -0.04713371  0.18507438  0.07071193 -0.01743895
                   Z  0.00039209 -0.12529549  0.52892385  0.19287185 -0.05701839
  6   C            X -0.00016251  0.00020589  0.00022414  0.00003866  0.00179393
                   Y  0.00028435 -0.00215570 -0.00036937 -0.00032229 -0.00134830
                   Z -0.00009059  0.00127257  0.00061232  0.00031606  0.00344441
  7   H            X -0.00003286 -0.22252127 -0.04395206 -0.01596909 -0.23330371
                   Y -0.00014388 -0.30642807 -0.06084094 -0.02116654 -0.32931786
                   Z  0.00052500  0.52550877  0.10712717  0.03770961  0.54808869
  8   H            X -0.00003972  0.06796442  0.01441524  0.00600704 -0.06004344
                   Y -0.00102390 -0.44578966 -0.10628863 -0.04394568  0.42595120
                   Z -0.00113521 -0.50777321 -0.12352742 -0.05078130  0.47357261
  9   C            X  0.00153925 -0.00040457  0.00033354 -0.00201071 -0.00012894
                   Y  0.00217895 -0.00021237 -0.00061427  0.00064157  0.00015603
                   Z  0.00116457 -0.00000951  0.00051664 -0.00128557 -0.00027942
 10   H            X -0.00018601 -0.00014979 -0.02201709  0.06017103  0.00114780
                   Y  0.00006683  0.00048366 -0.00417509  0.00728841  0.00043788
                   Z -0.00136540  0.00542311  0.19505481 -0.58632067 -0.00924060
 11   H            X -0.00072862  0.00124385  0.09080095 -0.24416571 -0.00123523
                   Y  0.00200269 -0.00503529 -0.22556474  0.61151993  0.00214524
                   Z  0.00063762 -0.00192344 -0.07799886  0.21586875  0.00088738
 12   H            X  0.00264256 -0.01796474 -0.00761947 -0.00577960 -0.02450810
                   Y -0.00149574  0.00922679  0.00312910  0.00369871  0.01345401
                   Z  0.00368267 -0.02034266 -0.00899651 -0.00783158 -0.03286473
 13   C            X -0.01621964  0.00007452  0.00005899 -0.00014213 -0.00026547
                   Y -0.03523800  0.00001722  0.00000587  0.00023652  0.00003230
                   Z -0.03531688  0.00005793  0.00001884  0.00013043  0.00007239
 14   H            X -0.32911754  0.00024075  0.00015103  0.00113260  0.00084441
                   Y  0.10287870 -0.00005483 -0.00010206 -0.00020356 -0.00031962
                   Z  0.55604639 -0.00039072 -0.00039268 -0.00167993 -0.00150607
 15   H            X  0.48613265 -0.00051693 -0.00010469 -0.00057147  0.00278249
                   Y -0.14626979  0.00030715 -0.00001932  0.00041860 -0.00078878
                   Z  0.11546860 -0.00010089 -0.00008491 -0.00002125  0.00073588
 16   H            X  0.01673792  0.00000787 -0.00000737  0.00009677 -0.00001772
                   Y  0.43254949 -0.00071579  0.00005936 -0.00163424  0.00050916
                   Z -0.26982335  0.00018536  0.00001223  0.00112072 -0.00038843
 17   B            X  0.00006931 -0.00022615 -0.00003306 -0.00032791 -0.00003924
                   Y  0.00012981 -0.00007131 -0.00001198 -0.00016249 -0.00005424
                   Z  0.00007141  0.00020113  0.00008125 -0.00000989 -0.00023914
 18   H            X  0.00001216 -0.00043323 -0.00018925  0.00101030  0.00096560
                   Y -0.00016345 -0.00034525 -0.00015755  0.00063259  0.00072236
                   Z  0.00016085 -0.00065696 -0.00033860  0.00053629  0.00092703
 19   H            X -0.00081628  0.00055391  0.00104732 -0.00384505 -0.00001125
                   Y -0.00016039 -0.00053139  0.00001270  0.00036953  0.00023736
                   Z  0.00172320 -0.00061733  0.00018805 -0.00077681  0.00013537
 20   H            X -0.00047376 -0.00040548  0.00010284  0.00056418  0.00092412
                   Y  0.00001479  0.00009029 -0.00006297  0.00037411  0.00012572
                   Z -0.00032478 -0.00035633 -0.00009014 -0.00009902  0.00056246

 TRANS. SAYVETZ    X -0.00000023  0.00000023  0.00000023 -0.00000000  0.00000004
                   Y -0.00000013  0.00000016  0.00000031 -0.00000021 -0.00000002
                   Z -0.00000051  0.00000006  0.00000001  0.00000007 -0.00000011
               TOTAL  0.00000057  0.00000029  0.00000039  0.00000022  0.00000012

   ROT. SAYVETZ    X -0.00036217  0.00033486  0.00015011 -0.00022740 -0.00020181
                   Y -0.00012432 -0.00031712  0.00053137 -0.00025589 -0.00049766
                   Z -0.00022687  0.00014175  0.00005352 -0.00084403 -0.00014572
               TOTAL  0.00044507  0.00048248  0.00055475  0.00091081  0.00055644

                           56          57          58          59          60
       FREQUENCY:      3737.21     3739.20     3739.77     3747.35     3768.99  
        SYMMETRY:         A           A           A           A           A   
    REDUCED MASS:      1.09729     1.11167     1.10745     1.10963     1.11043
    IR INTENSITY:      0.47166     0.07761     0.02617     0.00315     0.00901

  1   C            X -0.00116386 -0.00904900  0.00197034 -0.00252577 -0.00000475
                   Y -0.00695780 -0.02719911  0.00569515 -0.01115424 -0.00000903
                   Z -0.01891047 -0.07562567  0.01588477 -0.03108658 -0.00010716
  2   C            X  0.00505839  0.00188301  0.00012269  0.00155718 -0.00001685
                   Y  0.00224131 -0.00296487  0.00081101 -0.00046394  0.00000702
                   Z -0.00523456 -0.00919754  0.00137558 -0.00482480 -0.00017496
  3   C            X -0.00295575 -0.00856696  0.00043598  0.02185428  0.00043894
                   Y  0.00514920  0.01693675 -0.00142064 -0.04029406 -0.00120445
                   Z  0.01005389  0.02706952 -0.00156918 -0.07135824 -0.00190782
  4   H            X  0.09529946  0.39113594 -0.08251462  0.15669475  0.00034707
                   Y  0.04043597  0.16562203 -0.03498174  0.06780417  0.00020176
                   Z  0.11059724  0.45498835 -0.09591755  0.18223514  0.00044775
  5   H            X -0.07659182 -0.29148938  0.06119158 -0.13220995 -0.00069583
                   Y  0.04076794  0.15325899 -0.03194286  0.06449604  0.00022792
                   Z  0.11242421  0.42952703 -0.09014663  0.19085872  0.00092406
  6   C            X -0.04789153  0.01179641 -0.00739339 -0.00193542  0.00076566
                   Y  0.02463153 -0.00604907  0.00366931  0.00093970 -0.00010074
                   Z -0.06184821  0.01521030 -0.00930582 -0.00236703  0.00079258
  7   H            X -0.02515799 -0.01910282  0.00140153 -0.01276320 -0.00003777
                   Y -0.03336066 -0.02915778  0.00274088 -0.01830805 -0.00023181
                   Z  0.05315861  0.04937743 -0.00503081  0.03075627  0.00061403
  8   H            X -0.00255335 -0.00982265  0.00175255 -0.00424730 -0.00020192
                   Y  0.02140350  0.06004848 -0.01057279  0.02714360  0.00057376
                   Z  0.02138474  0.06315644 -0.01111067  0.02823044  0.00065554
  9   C            X  0.00050760  0.00009043 -0.00015538  0.00029521 -0.00012073
                   Y -0.00320065  0.00070597 -0.00120813  0.00000798  0.00061107
                   Z  0.00084069 -0.00056044 -0.00051521  0.00035615  0.00009631
 10   H            X  0.00873922  0.02319961 -0.00110921 -0.06718536 -0.00205183
                   Y  0.00141979  0.00347948  0.00038458 -0.01813441 -0.00024043
                   Z -0.09081966 -0.24539283  0.01261155  0.67170847  0.01572685
 11   H            X  0.02672302  0.07987971 -0.00589923 -0.19582184 -0.00520296
                   Y -0.06528596 -0.19849133  0.01377984  0.49308526  0.01279671
                   Z -0.02260256 -0.06766019  0.00439272  0.16872626  0.00430337
 12   H            X  0.52966865 -0.12823819  0.07933003  0.02103485 -0.00612545
                   Y -0.26077306  0.06352393 -0.03909408 -0.01005456  0.00334064
                   Z  0.69586979 -0.16843286  0.10472762  0.02615940 -0.00820086
 13   C            X -0.00616062  0.01497692  0.06889504  0.00226988  0.04381606
                   Y -0.00114583  0.00108152  0.00679821  0.00164355 -0.06497650
                   Z  0.00625592 -0.01158451 -0.05420762 -0.00348758  0.04751123
 14   H            X  0.03573110 -0.07370295 -0.33976604 -0.01598709  0.03404780
                   Y -0.01126389  0.02277541  0.10466577  0.00533302 -0.01189520
                   Z -0.06076634  0.12491477  0.57508619  0.02755185 -0.05164359
 15   H            X  0.03642667 -0.10172156 -0.46520506 -0.00904126 -0.57600056
                   Y -0.01120414  0.03083734  0.14189859  0.00336121  0.17227939
                   Z  0.00938392 -0.02553765 -0.11684856 -0.00223490 -0.13673746
 16   H            X  0.00109137 -0.00143826 -0.00704052 -0.00093911  0.02206282
                   Y  0.03877651 -0.06537107 -0.31665681 -0.02764100  0.60454560
                   Z -0.02231564  0.03951267  0.19377236  0.01719457 -0.37613660
 17   B            X -0.00000375 -0.00004031 -0.00002884  0.00004146 -0.00003630
                   Y -0.00068154  0.00012504  0.00008295  0.00009242 -0.00015650
                   Z  0.00064667 -0.00017766  0.00019688 -0.00012209 -0.00002739
 18   H            X -0.00014699  0.00025327 -0.00051959 -0.00022421 -0.00005978
                   Y -0.00055115  0.00035542 -0.00027702 -0.00019198  0.00010776
                   Z -0.00018302  0.00034455 -0.00017962  0.00009289 -0.00030532
 19   H            X -0.00465130 -0.00079789 -0.00211255  0.00343372 -0.00027660
                   Y  0.00005378 -0.00001345 -0.00148313 -0.00047221  0.00171103
                   Z  0.00633371 -0.00175187  0.00193677  0.00199670  0.00046794
 20   H            X  0.00183112 -0.00024706  0.00025412  0.00062323  0.00023290
                   Y  0.00034324  0.00000288 -0.00016973 -0.00017369  0.00024515
                   Z  0.00016972  0.00005944  0.00010212  0.00076817 -0.00003337

 TRANS. SAYVETZ    X  0.00000024  0.00000002  0.00000017 -0.00000004  0.00000001
                   Y -0.00000027 -0.00000005 -0.00000008  0.00000003 -0.00000005
                   Z  0.00000015 -0.00000012  0.00000009  0.00000003 -0.00000000
               TOTAL  0.00000039  0.00000013  0.00000021  0.00000006  0.00000005

   ROT. SAYVETZ    X  0.00098866 -0.00021461  0.00002192 -0.00030977 -0.00020656
                   Y  0.00993853 -0.00258831  0.00142626  0.00057163 -0.00018049
                   Z  0.00150580 -0.00076403 -0.00010624  0.00080641 -0.00002417
               TOTAL  0.01010046  0.00270724  0.00143038  0.00103586  0.00027537

 REFERENCE ON SAYVETZ CONDITIONS - A. SAYVETZ, J.CHEM.PHYS., 7, 383-389(1939).

 NOTE - THE MODES J,K ARE ORTHONORMALIZED ACCORDING TO
 SUM ON I   M(I) * (X(I,J)*X(I,K) + Y(I,J)*Y(I,K) + Z(I,J)*Z(I,K)) = DELTA(J,K)

  MODE FREQ(CM**-1)  SYMMETRY  RED. MASS  IR INTENS.
     1    1097.047    A        2.126853    3.680275
     2     540.442    A        1.222501    6.673037
     3       0.002    A        4.805531    0.000000
     4       0.003    A        4.805544    0.000000
     5       0.006    A        4.805549    0.000000
     6      41.139    A        2.997290    0.009966
     7      73.699    A        2.322820    0.000467
     8     118.495    A        2.181820    0.019012
     9     128.602    A        2.728315    0.050802
    10     239.783    A        1.200659    0.016434
    11     267.507    A        1.803695    0.016216
    12     328.610    A        2.624176    0.006564
    13     359.055    A        2.441224    0.075357
    14     428.810    A        3.104892    0.016599
    15     504.284    A        2.573176    0.260347
    16     677.569    A        2.577729    1.134394
    17     718.437    A        1.257881    0.002019
    18     749.865    A        1.784937    0.089472
    19     785.384    A        1.513875    0.369329
    20     903.404    A        1.289527    0.502134
    21     942.643    A        1.800061    0.037047
    22     988.221    A        2.047139    0.010316
    23    1038.217    A        1.384147    0.997864
    24    1049.256    A        1.407578    0.725399
    25    1092.773    A        2.083305    0.067829
    26    1126.475    A        1.790690    0.269960
    27    1186.320    A        1.396303    0.837780
    28    1218.522    A        1.303661    1.670373
    29    1251.304    A        1.466355    2.292306
    30    1266.200    A        1.243673    2.482743
    31    1301.587    A        1.131345    0.563278
    32    1308.874    A        1.440219    1.388535
    33    1322.630    A        1.215431    1.535659
    34    1359.840    A        1.341398    0.128419
    35    1404.924    A        1.496320    0.164106
    36    1475.347    A        1.238964    0.001322
    37    1487.983    A        1.255140    0.020975
    38    1509.095    A        1.558861    0.091294
    39    1603.652    A        2.000235    0.029486
    40    1616.296    A        1.820981    0.296931
    41    1634.017    A        1.598671    0.038120
    42    1710.730    A        1.310040    0.107282
    43    1754.530    A        3.162166    0.402186
    44    1806.556    A        1.102670    0.005484
    45    1809.099    A        1.048777    0.046191
    46    1811.935    A        1.088500    0.021854
    47    1821.825    A        1.101240    0.012457
    48    1838.362    A        1.119721    0.005276
    49    3183.142    A        1.036964    0.038165
    50    3404.404    A        1.151559    0.173814
    51    3565.980    A        1.039366    0.009759
    52    3608.745    A        1.066164    0.063963
    53    3619.809    A        1.067036    0.060947
    54    3629.329    A        1.068994    0.017829
    55    3720.387    A        1.111018    0.006990
    56    3737.207    A        1.097294    0.471656
    57    3739.198    A        1.111674    0.077614
    58    3739.772    A        1.107446    0.026167
    59    3747.353    A        1.109633    0.003146
    60    3768.992    A        1.110430    0.009006

     -------------------------------
     THERMOCHEMISTRY AT T=  298.15 K
     -------------------------------

 USING IDEAL GAS, RIGID ROTOR, HARMONIC NORMAL MODE APPROXIMATIONS.
 P=  1.01325E+05 PASCAL.
 ALL FREQUENCIES ARE SCALED BY   1.00000
 THE MOMENTS OF INERTIA ARE (IN AMU*BOHR**2)
            525.03772           768.13672           955.92126
 THE ROTATIONAL SYMMETRY NUMBER IS  1.0
 THE ROTATIONAL CONSTANTS ARE (IN GHZ)
      3.43421     2.34735     1.88623
   2 IMAGINARY FREQUENCY VIBRATION(S) IS(ARE) EXCLUDED
     FROM THE FOLLOWING THERMOCHEMICAL ANALYSIS.
      9 -     60 VIBRATIONAL MODES ARE USED IN THERMOCHEMISTRY.
 THE HARMONIC ZERO POINT ENERGY IS (SCALED BY   1.000)
        0.203424 HARTREE/MOLECULE    44646.420230 CM**-1/MOLECULE 
      127.650649 KCAL/MOL              534.090316 KJ/MOL

               Q               LN Q
 ELEC.     1.00000E+00       0.000000
 TRANS.    3.70351E+07      17.427377
 ROT.      2.22263E+05      12.311616
 VIB.      1.01691E+01       2.319353
 TOT.      8.37072E+13      32.058346

              E         H         G         CV        CP        S
           KJ/MOL    KJ/MOL    KJ/MOL   J/MOL-K   J/MOL-K   J/MOL-K
 ELEC.      0.000     0.000     0.000     0.000     0.000     0.000
 TRANS.     3.718     6.197   -43.201    12.472    20.786   165.684
 ROT.       3.718     3.718   -30.520    12.472    12.472   114.835
 VIB.     543.752   543.752   528.341    78.831    78.831    51.688
 TOTAL    551.188   553.667   454.620   103.774   112.089   332.208
 VIB. THERMAL CORRECTION E(T)-E(0) = H(T)-H(0) =      9661.196 J/MOL

              E         H         G         CV        CP        S
         KCAL/MOL  KCAL/MOL  KCAL/MOL CAL/MOL-K CAL/MOL-K CAL/MOL-K
 ELEC.      0.000     0.000     0.000     0.000     0.000     0.000
 TRANS.     0.889     1.481   -10.325     2.981     4.968    39.600
 ROT.       0.889     0.889    -7.294     2.981     2.981    27.446
 VIB.     129.960   129.960   126.276    18.841    18.841    12.354
 TOTAL    131.737   132.330   108.657    24.803    26.790    79.400
 VIB. THERMAL CORRECTION E(T)-E(0) = H(T)-H(0) =      2309.081 CAL/MOL

     *******************************************************
     * THIS IS NOT A STATIONARY POINT ON THE MOLECULAR PES *
     *     THE VIBRATIONAL ANALYSIS IS NOT VALID !!!       *
     *******************************************************
 ......END OF NORMAL COORDINATE ANALYSIS......
 STEP CPU TIME =     0.01 TOTAL CPU TIME =        175.2 (      2.9 MIN)
 TOTAL WALL CLOCK TIME=        176.8 SECONDS, CPU UTILIZATION IS    99.10%
               580000  WORDS OF DYNAMIC MEMORY USED
 EXECUTION OF GAMESS TERMINATED NORMALLY Sat Nov 13 14:39:24 2021
 DDI: 263640 bytes (0.3 MB / 0 MWords) used by master data server.

 ----------------------------------------
 CPU timing information for all processes
 ========================================
 0: 171.854 + 3.387 = 175.242
 ----------------------------------------
 ddikick.x: exited gracefully.
----- accounting info -----
Files used on the master node chemcompute-node-0.novalocal were:
-rw-r--r--. 1 chemcomp chemcomp     1374 Nov 13 14:36 /scratch/305962/341863.F05
-rw-rw-r--. 1 chemcomp chemcomp  8100720 Nov 13 14:38 /scratch/305962/341863.F08
-rw-rw-r--. 1 chemcomp chemcomp 85196800 Nov 13 14:39 /scratch/305962/341863.F10
-rw-rw-r--. 1 chemcomp chemcomp   564960 Nov 13 14:39 /scratch/305962/341863.F18
Sat Nov 13 14:39:27 UTC 2021
0.125u 0.125s 3:00.41 0.1%	0+0k 8+216io 0pf+0w
Finishing Up...
Looking for IR data...
Looking for Raman data...
vibramans not found
Looking for thermodynamics data...
Looking for UV-Vis data...
305962
