----- GAMESS execution script 'rungms' -----
This job is running on host chemcompute-node-0.novalocal
under operating system Linux at Fri Nov 5 18:38:10 UTC 2021
SLURM has assigned the following compute nodes to this run:
chemcompute-node-0
Available scratch disk space (Kbyte units) at beginning of the job is
Filesystem     1K-blocks     Used Available Use% Mounted on
/dev/sda1       62903276 16756900  46146376  27% /
GAMESS temporary binary files will be written to /scratch/301310
GAMESS supplementary output files will be written to /data/slurm/336319
Copying input file 336319.inp to your run's scratch directory...
The generated host list is
chemcompute-node-0.novalocal

 Distributed Data Interface kickoff program.
 Initiating 1 compute processes on 1 nodes to run the following command:
 /data/gamess-2019R1-ddi/gamess.00.x 336319 

          ******************************************************
          *         GAMESS VERSION = 30 JUN 2019 (R1)          *
          *             FROM IOWA STATE UNIVERSITY             *
          * M.W.SCHMIDT, K.K.BALDRIDGE, J.A.BOATZ, S.T.ELBERT, *
          *   M.S.GORDON, J.H.JENSEN, S.KOSEKI, N.MATSUNAGA,   *
          *          K.A.NGUYEN, S.J.SU, T.L.WINDUS,           *
          *       TOGETHER WITH M.DUPUIS, J.A.MONTGOMERY       *
          *         J.COMPUT.CHEM.  14, 1347-1363(1993)        *
          **************** 64 BIT LINUX VERSION ****************

  SINCE 1993, STUDENTS AND POSTDOCS WORKING AT IOWA STATE UNIVERSITY
  AND ALSO IN THEIR VARIOUS JOBS AFTER LEAVING ISU HAVE MADE IMPORTANT
  CONTRIBUTIONS TO THE CODE:
     IVANA ADAMOVIC, CHRISTINE AIKENS, YURI ALEXEEV, POOJA ARORA,
     ANDREY ASADCHEV, ROB BELL, PRADIPTA BANDYOPADHYAY, JONATHAN BENTZ,
     COLLEEN BERTONI, BRETT BODE, KURT BRORSEN, CALEB CARLIN, GALINA CHABAN,
     WEI CHEN, CHEOL HO CHOI, PAUL DAY, ALBERT DEFUSCO, NUWAN DESILVA,
     TIM DUDLEY, DMITRI FEDOROV, ALEX FINDLATER, GRAHAM FLETCHER, 
     MARK FREITAG, KURT GLAESEMANN, ANASTASIA GUNINA,
     DAN KEMP, GRANT MERRILL, NORIYUKI MINEZAWA, JONATHAN MULLIN,
     TAKESHI NAGATA, SEAN NEDD, HEATHER NETZLOFF, BOSILJKA NJEGIC, RYAN OLSON,
     MIKE PAK, BUU PHAM,
     SPENCER PRUITT, LUKE ROSKOP, JIM SHOEMAKER, LYUDMILA SLIPCHENKO,
     TONY SMITH, SAROM SOK LEANG, JIE SONG, TETSUYA TAKETSUGU, SIMON WEBB,
     PENG XU, SOOHAENG YOO, FEDERICO ZAHARIEV

  ADDITIONAL CODE HAS BEEN PROVIDED BY COLLABORATORS IN OTHER GROUPS:
     IOWA STATE UNIVERSITY:
          JOE IVANIC, AARON WEST, LAIMUTIS BYTAUTAS, KLAUS RUEDENBERG
     UNIVERSITY OF TOKYO: KIMIHIKO HIRAO, TAKAHITO NAKAJIMA,
          TAKAO TSUNEDA, MUNEAKI KAMIYA, SUSUMU YANAGISAWA,
          KIYOSHI YAGI, MAHITO CHIBA, SEIKEN TOKURA, NAOAKI KAWAKAMI
     UNIVERSITY OF AARHUS: FRANK JENSEN
     UNIVERSITY OF IOWA: VISVALDAS KAIRYS, HUI LI
     NATIONAL INST. OF STANDARDS AND TECHNOLOGY: WALT STEVENS, DAVID GARMER
     UNIVERSITY OF PISA: BENEDETTA MENNUCCI, JACOPO TOMASI
     UNIVERSITY OF MEMPHIS: HENRY KURTZ, PRAKASHAN KORAMBATH
     UNIVERSITY OF ALBERTA: TOBY ZENG, MARIUSZ KLOBUKOWSKI
     UNIVERSITY OF NEW ENGLAND: MARK SPACKMAN
     MIE UNIVERSITY: HIROAKI UMEDA
     NAT. INST. OF ADVANCED INDUSTRIAL SCIENCE AND TECHNOLOGY: KAZUO KITAURA
     MICHIGAN STATE UNIVERSITY:
          KAROL KOWALSKI, MARTA WLOCH, JEFFREY GOUR, JESSE LUTZ,
          WEI LI, JUN SHEN, J. EMILIANO DEUSTUA, PIOTR PIECUCH
     UNIVERSITY OF MINNESOTA:
          YINAN SHU
     UNIVERSITY OF SILESIA: MONIKA MUSIAL, STANISLAW KUCHARSKI
     FACULTES UNIVERSITAIRES NOTRE-DAME DE LA PAIX:
          OLIVIER QUINET, BENOIT CHAMPAGNE
     UNIVERSITY OF CALIFORNIA - SANTA BARBARA: BERNARD KIRTMAN
     INSTITUTE FOR MOLECULAR SCIENCE:
          KAZUYA ISHIMURA, MICHIO KATOUDA, AND SHIGERU NAGASE
     UNIVERSITY OF NOTRE DAME: ANNA POMOGAEVA, DAN CHIPMAN
     KYUSHU UNIVERSITY:
          HARUYUKI NAKANO,
          FENG LONG GU, JACEK KORCHOWIEC, MARCIN MAKOWSKI, AND YURIKO AOKI,
          HIROTOSHI MORI AND EISAKU MIYOSHI
     PENNSYLVANIA STATE UNIVERSITY:
          TZVETELIN IORDANOV, CHET SWALINA, JONATHAN SKONE,
          SHARON HAMMES-SCHIFFER
     WASEDA UNIVERSITY:
          MASATO KOBAYASHI, TOMOKO AKAMA, TSUGUKI TOUMA,
          TAKESHI YOSHIKAWA, YASUHIRO IKABATA, JUNJI SEINO,
          YUYA NAKAJIMA, HIROMI NAKAI
     NANJING UNIVERSITY: SHUHUA LI
     UNIVERSITY OF NEBRASKA:
          PEIFENG SU, DEJUN SI, NANDUN THELLAMUREGE, YALI WANG, HUI LI
     UNIVERSITY OF ZURICH: ROBERTO PEVERATI, KIM BALDRIDGE
     N. COPERNICUS UNIVERSITY AND JACKSON STATE UNIVERSITY:
          MARIA BARYSZ
     UNIVERSITY OF COPENHAGEN: Jimmy Kromann, CASPER STEINMANN
     TOKYO INSTITUTE OF TECHNOLOGY: HIROYA NAKATA
     NAGOYA UNIVERSITY: YOSHIO NISHIMOTO, STEPHAN IRLE
     MOSCOW STATE UNIVERSITY: VLADIMIR MIRONOV
     A.N.NESMEYANOV INSTITUTE OF ORGANOELEMENT COMPOUNDS OF RUSSIAN ACADEMY OF SCIENCES:
          IGOR S. GERASIMOV

 EXECUTION OF GAMESS BEGUN Fri Nov  5 18:38:10 2021

            ECHO OF THE FIRST FEW INPUT CARDS -
 INPUT CARD>!File created by the GAMESS Input Deck Generator Plugin for Avogadro            
 INPUT CARD> $BASIS GBASIS=STO NGAUSS=3 $END                                                
 INPUT CARD> $CONTRL SCFTYP=RHF RUNTYP=IRC $END                                             
 INPUT CARD> $STATPT HESS=READ ihrep=5 $END                                                 
 INPUT CARD> $FORCE NVIB=2 $END                                                             
 INPUT CARD> $irc npoint=100 saddle=.t. tsengy=.t. forwrd=.f. opttol=0.0005 stride=0.1 $end 
 INPUT CARD> $ZMAT DLC=.t. auto=.t. nonvdw(1)=1,6,3,4,4,5,5,6,1,2,2,3 $END                  
 INPUT CARD>                                                                                
 INPUT CARD>                                                                                
 INPUT CARD> $DATA                                                                          
 INPUT CARD>Title                                                                           
 INPUT CARD>C1                                                                              
 INPUT CARD>C     6.0     5.25095749    -1.91954494     1.99807370                          
 INPUT CARD>C     6.0     3.91554046    -1.51878905     1.81651437                          
 INPUT CARD>C     6.0     3.43210936    -1.34159935     0.50946969                          
 INPUT CARD>C     6.0     4.53339720     0.00816547    -0.32631278                          
 INPUT CARD>C     6.0     5.49801207     0.37888250     0.62613899                          
 INPUT CARD>C     6.0     6.36050463    -0.64522696     1.06130886                          
 INPUT CARD>C     6.0     6.90446901    -1.51897693    -0.04713550                          
 INPUT CARD>C     6.0     6.32223082    -1.59069133    -1.22589743                          
 INPUT CARD>C     6.0     5.06131983    -0.80934948    -1.51949370                          
 INPUT CARD>O     8.0     4.50263500    -0.82378513    -2.60724187                          
 INPUT CARD>H     1.0     5.63252401    -1.91619551     3.01422358                          
 INPUT CARD>H     1.0     5.58411360    -2.78767729     1.44142711                          
 INPUT CARD>H     1.0     3.47826719    -0.89826727     2.59027123                          
 INPUT CARD>H     1.0     3.63183188    -2.13983345    -0.19626145                          
 INPUT CARD>H     1.0     2.43028545    -0.94035131     0.39705804                          
 INPUT CARD>H     1.0     3.81211495     0.76369244    -0.62562048                          
 INPUT CARD>H     1.0     5.29190445     1.20991218     1.28951526                          
 INPUT CARD>H     1.0     7.09683037    -0.38972744     1.81786811                          
 INPUT CARD>H     1.0     7.80204105    -2.08684969     0.17261088                          
 INPUT CARD>H     1.0     6.72343016    -2.19004297    -2.03250480                          
 INPUT CARD> $END                                                                           
 INPUT CARD>                                                                                
 INPUT CARD> $HESS                                                                          
 INPUT CARD>ENERGY IS     -416.0940647003 E(NUC) IS      511.4290011934                     
 INPUT CARD> 1  1 5.47175980E-01-3.49415753E-01 2.19681380E-01-3.07748925E-01 1.17572278E-01
 INPUT CARD> 1  2 4.49721729E-02 1.68475615E-02 9.41548569E-02-1.48007731E-01-1.21731933E-01
 INPUT CARD> 1  3-9.57014327E-02-1.03820274E-02 1.08057004E-01-7.10189550E-02 9.97638819E-02
 INPUT CARD> 1  4 5.30437977E-03 1.80189588E-01-1.31250352E-01-1.90070742E-02-8.66258185E-03
 INPUT CARD> 1  5 3.07743959E-02-6.32937196E-03-3.72940960E-03-6.07467443E-03 5.47777715E-03
 INPUT CARD> 1  6 1.08873606E-02-4.59351676E-03-7.89504635E-04-3.22432334E-03-1.22322065E-03
 INPUT CARD> 1  7-1.10899925E-01 2.25266181E-02-1.39743343E-01-8.62042415E-02 1.30882799E-01
 INPUT CARD> 1  8 3.39385584E-02-1.05663067E-02-1.90441221E-03-9.68110816E-03-1.16789690E-02
 INPUT CARD> 1  9-1.15701577E-02 8.54226012E-03-1.68842239E-03-3.34008815E-03-3.06531839E-04
 INPUT CARD> 1 10 6.14661643E-03 3.29569504E-03-3.36190562E-03-3.61017622E-04 2.59868610E-03
 INPUT CARD> 1 11 1.02075484E-03-1.49381353E-02-1.67744256E-02 1.72480568E-02 8.56467589E-04
 INPUT CARD> 1 12 1.03459512E-03-3.20066764E-04 2.07269792E-03 2.20339115E-03-9.98085885E-04
 INPUT CARD> 2  1-3.49415753E-01 5.48759674E-01 1.93238590E-01 1.91794760E-01-1.52874481E-01
 INPUT CARD> 2  2 1.07736140E-02 1.24044153E-02 2.85436114E-02-3.76063987E-02-3.78442323E-02
    1000000 WORDS OF MEMORY AVAILABLE

     BASIS OPTIONS
     -------------
     GBASIS=STO          IGAUSS=       3      POLAR=NONE    
     NDFUNC=       0     NFFUNC=       0     DIFFSP=       F
     NPFUNC=       0      DIFFS=       F     BASNAM=        


     RUN TITLE
     ---------
 Title                                                                           

 THE POINT GROUP OF THE MOLECULE IS C1      
 THE ORDER OF THE PRINCIPAL AXIS IS     0

 ATOM      ATOMIC                      COORDINATES (BOHR)
           CHARGE         X                   Y                   Z
 C           6.0     9.9228708293       -3.6274139577        3.7758117963
 C           6.0     7.3992985632       -2.8700951377        3.4327144121
 C           6.0     6.4857462503       -2.5352551568        0.9627581131
 C           6.0     8.5668785015        0.0154305009       -0.6166417405
 C           6.0    10.3897362895        0.7159841065        1.1832311213
 C           6.0    12.0196108943       -1.2193021543        2.0055829337
 C           6.0    13.0475545196       -2.8704501794       -0.0890731793
 C           6.0    11.9472838809       -3.0059707447       -2.3166102318
 C           6.0     9.5645076149       -1.5294487455       -2.8714267331
 O           8.0     8.5087463727       -1.5567281685       -4.9269727180
 H           1.0    10.6439269982       -3.6210844528        5.6960566319
 H           1.0    10.5524445883       -5.2679462203        2.7239022692
 H           1.0     6.5729719012       -1.6974790040        4.8949028586
 H           1.0     6.8631670867       -4.0436988799       -0.3708803625
 H           1.0     4.5925735724       -1.7770063081        0.7503308968
 H           1.0     7.2038526892        1.4431694505       -1.1822512795
 H           1.0    10.0002493637        2.2864024894        2.4368304984
 H           1.0    13.4110647806       -0.7364780715        3.4352726097
 H           1.0    14.7437197295       -3.9435740917        0.3261872657
 H           1.0    12.7054407000       -4.1385811146       -3.8408771407

          INTERNUCLEAR DISTANCES (ANGS.)
          ------------------------------

                1 C          2 C          3 C          4 C          5 C     

   1 C       0.0000000    1.4060255 *  2.4203660 *  3.1038255    2.6881238 *
   2 C       1.4060255 *  0.0000000    1.4048016 *  2.7027847 *  2.7426934 *
   3 C       2.4203660 *  1.4048016 *  0.0000000    1.9321574 *  2.6910265 *
   4 C       3.1038255    2.7027847 *  1.9321574 *  0.0000000    1.4053744 *
   5 C       2.6881238 *  2.7426934 *  2.6910265 *  1.4053744 *  0.0000000  
   6 C       1.9319704 *  2.7039408 *  3.0602222    2.3855266 *  1.4078588 *
   7 C       2.6603450 *  3.5223408    3.5211580    2.8340934 *  2.4562757 *
   8 C       3.4131746    3.8798966    3.3802881    2.5623273 *  2.8264105 *
   9 C       3.6934776    3.5979251    2.6559949 *  1.5397122 *  2.4912517 *
  10 O       4.7926619    4.5163403    3.3358728    2.4281115 *  3.5905343  
  11 H       1.0854330 *  2.1308383 *  3.3831609    4.0087938    3.3148793  
  12 H       1.0837445 *  2.1295314 *  2.7551422 *  3.4706838    3.2709646  
  13 H       2.1298209 *  1.0839534 *  2.1280059 *  3.2313127    3.0932663  
  14 H       2.7359096 *  2.1254301 *  1.0840310 *  2.3331594 *  3.2408180  
  15 H       3.3879584    2.1343451 *  1.0850288 *  2.4178562 *  3.3472082  
  16 H       4.0191792    3.3443148    2.4217943 *  1.0865791 *  2.1347669 *
  17 H       3.2089303    3.1012766    3.2523099    2.1518431 *  1.0831245 *
  18 H       2.4041760 *  3.3757055    4.0060138    3.3655639    2.1371007 *
  19 H       3.1413903    4.2579336    4.4458042    3.9143385    3.4050070  
  20 H       4.2996404    4.8114213    4.2443237    3.5411094    3.8947932  

                6 C          7 C          8 C          9 C         10 O     

   1 C       1.9319704 *  2.6603450 *  3.4131746    3.6934776    4.7926619  
   2 C       2.7039408 *  3.5223408    3.8798966    3.5979251    4.5163403  
   3 C       3.0602222    3.5211580    3.3802881    2.6559949 *  3.3358728  
   4 C       2.3855266 *  2.8340934 *  2.5623273 *  1.5397122 *  2.4281115 *
   5 C       1.4078588 *  2.4562757 *  2.8264105 *  2.4912517 *  3.5905343  
   6 C       0.0000000    1.5126087 *  2.4752132 *  2.8940213 *  4.1160451  
   7 C       1.5126087 *  0.0000000    1.3166715 *  2.4634546 *  3.5785811  
   8 C       2.4752132 *  1.3166715 *  0.0000000    1.5121476 *  2.4098105 *
   9 C       2.8940213 *  2.4634546 *  1.5121476 *  0.0000000    1.2229200 *
  10 O       4.1160451    3.5785811    2.4098105 *  1.2229200 *  0.0000000  
  11 H       2.4411458 *  3.3387941    4.3081637    4.7016991    5.8370269  
  12 H       2.3102741 *  2.3598215 *  3.0153296    3.5991869    4.6279789  
  13 H       3.2724682    4.3680721    4.8094411    4.4050119    5.2980203  
  14 H       3.3557394    3.3343448    2.9325678 *  2.3589334 *  2.8815114 *
  15 H       3.9968676    4.5332587    4.2666340    3.2577099    3.6515802  
  16 H       3.3652748    3.8868854    3.4934420    2.1986321 *  2.6312975 *
  17 H       2.1530271 *  3.4400342    3.9028520    3.4671484    4.4658244  
  18 H       1.0862032 *  2.1887087 *  3.3625626    3.9315862    5.1478009  
  19 H       2.2239801 *  1.0846214 *  2.0956710 *  3.4650797    4.4954414  
  20 H       3.4770468    2.1035199 *  1.0820345 *  2.2208344 *  2.6700027 *

               11 H         12 H         13 H         14 H         15 H     

   1 C       1.0854330 *  1.0837445 *  2.1298209 *  2.7359096 *  3.3879584  
   2 C       2.1308383 *  2.1295314 *  1.0839534 *  2.1254301 *  2.1343451 *
   3 C       3.3831609    2.7551422 *  2.1280059 *  1.0840310 *  1.0850288 *
   4 C       4.0087938    3.4706838    3.2313127    2.3331594 *  2.4178562 *
   5 C       3.3148793    3.2709646    3.0932663    3.2408180    3.3472082  
   6 C       2.4411458 *  2.3102741 *  3.2724682    3.3557394    3.9968676  
   7 C       3.3387941    2.3598215 *  4.3680721    3.3343448    4.5332587  
   8 C       4.3081637    3.0153296    4.8094411    2.9325678 *  4.2666340  
   9 C       4.7016991    3.5991869    4.4050119    2.3589334 *  3.2577099  
  10 O       5.8370269    4.6279789    5.2980203    2.8815114 *  3.6515802  
  11 H       0.0000000    1.7987531 *  2.4200694 *  3.7894587    4.2492540  
  12 H       1.7987531 *  0.0000000    3.0535720    2.6292831 *  3.8013093  
  13 H       2.4200694 *  3.0535720    0.0000000    3.0544775    2.4310946 *
  14 H       3.7894587    2.6292831 *  3.0544775    0.0000000    1.7984714 *
  15 H       4.2492540    3.8013093    2.4310946 *  1.7984714 *  0.0000000  
  16 H       4.8727973    4.4749181    3.6353162    2.9406315 *  2.4205556 *
  17 H       3.5865289    4.0111326    3.0701249    4.0229553    3.6890346  
  18 H       2.4301367 *  2.8601020 *  3.7348653    4.3733058    4.9090253  
  19 H       3.5792024    2.6495766 *  5.0943920    4.1868268    5.4973260  
  20 H       5.1705450    3.7045124    5.7939473    3.5961494    5.0887716  

               16 H         17 H         18 H         19 H         20 H     

   1 C       4.0191792    3.2089303    2.4041760 *  3.1413903    4.2996404  
   2 C       3.3443148    3.1012766    3.3757055    4.2579336    4.8114213  
   3 C       2.4217943 *  3.2523099    4.0060138    4.4458042    4.2443237  
   4 C       1.0865791 *  2.1518431 *  3.3655639    3.9143385    3.5411094  
   5 C       2.1347669 *  1.0831245 *  2.1371007 *  3.4050070    3.8947932  
   6 C       3.3652748    2.1530271 *  1.0862032 *  2.2239801 *  3.4770468  
   7 C       3.8868854    3.4400342    2.1887087 *  1.0846214 *  2.1035199 *
   8 C       3.4934420    3.9028520    3.3625626    2.0956710 *  1.0820345 *
   9 C       2.1986321 *  3.4671484    3.9315862    3.4650797    2.2208344 *
  10 O       2.6312975 *  4.4658244    5.1478009    4.4954414    2.6700027 *
  11 H       4.8727973    3.5865289    2.4301367 *  3.5792024    5.1705450  
  12 H       4.4749181    4.0111326    2.8601020 *  2.6495766 *  3.7045124  
  13 H       3.6353162    3.0701249    3.7348653    5.0943920    5.7939473  
  14 H       2.9406315 *  4.0229553    4.3733058    4.1868268    3.5961494  
  15 H       2.4205556 *  3.6890346    4.9090253    5.4973260    5.0887716  
  16 H       0.0000000    2.4610229 *  4.2532775    4.9681258    4.3794557  
  17 H       2.4610229 *  0.0000000    2.4689595 *  4.2914916    4.9643507  
  18 H       4.2532775    2.4689595 *  0.0000000    2.4666612 *  4.2668414  
  19 H       4.9681258    4.2914916    2.4666612 *  0.0000000    2.4569464 *
  20 H       4.3794557    4.9643507    4.2668414    2.4569464 *  0.0000000  

  * ... LESS THAN  3.000


     ATOMIC BASIS SET
     ----------------
 THE CONTRACTED PRIMITIVE FUNCTIONS HAVE BEEN UNNORMALIZED
 THE CONTRACTED BASIS FUNCTIONS ARE NOW NORMALIZED TO UNITY

  SHELL TYPE  PRIMITIVE        EXPONENT          CONTRACTION COEFFICIENT(S)

 C         

      1   S       1            71.6168373    0.154328967295
      1   S       2            13.0450963    0.535328142282
      1   S       3             3.5305122    0.444634542185

      2   L       4             2.9412494   -0.099967229187    0.155916274999
      2   L       5             0.6834831    0.399512826089    0.607683718598
      2   L       6             0.2222899    0.700115468880    0.391957393099

 C         

      3   S       7            71.6168373    0.154328967295
      3   S       8            13.0450963    0.535328142282
      3   S       9             3.5305122    0.444634542185

      4   L      10             2.9412494   -0.099967229187    0.155916274999
      4   L      11             0.6834831    0.399512826089    0.607683718598
      4   L      12             0.2222899    0.700115468880    0.391957393099

 C         

      5   S      13            71.6168373    0.154328967295
      5   S      14            13.0450963    0.535328142282
      5   S      15             3.5305122    0.444634542185

      6   L      16             2.9412494   -0.099967229187    0.155916274999
      6   L      17             0.6834831    0.399512826089    0.607683718598
      6   L      18             0.2222899    0.700115468880    0.391957393099

 C         

      7   S      19            71.6168373    0.154328967295
      7   S      20            13.0450963    0.535328142282
      7   S      21             3.5305122    0.444634542185

      8   L      22             2.9412494   -0.099967229187    0.155916274999
      8   L      23             0.6834831    0.399512826089    0.607683718598
      8   L      24             0.2222899    0.700115468880    0.391957393099

 C         

      9   S      25            71.6168373    0.154328967295
      9   S      26            13.0450963    0.535328142282
      9   S      27             3.5305122    0.444634542185

     10   L      28             2.9412494   -0.099967229187    0.155916274999
     10   L      29             0.6834831    0.399512826089    0.607683718598
     10   L      30             0.2222899    0.700115468880    0.391957393099

 C         

     11   S      31            71.6168373    0.154328967295
     11   S      32            13.0450963    0.535328142282
     11   S      33             3.5305122    0.444634542185

     12   L      34             2.9412494   -0.099967229187    0.155916274999
     12   L      35             0.6834831    0.399512826089    0.607683718598
     12   L      36             0.2222899    0.700115468880    0.391957393099

 C         

     13   S      37            71.6168373    0.154328967295
     13   S      38            13.0450963    0.535328142282
     13   S      39             3.5305122    0.444634542185

     14   L      40             2.9412494   -0.099967229187    0.155916274999
     14   L      41             0.6834831    0.399512826089    0.607683718598
     14   L      42             0.2222899    0.700115468880    0.391957393099

 C         

     15   S      43            71.6168373    0.154328967295
     15   S      44            13.0450963    0.535328142282
     15   S      45             3.5305122    0.444634542185

     16   L      46             2.9412494   -0.099967229187    0.155916274999
     16   L      47             0.6834831    0.399512826089    0.607683718598
     16   L      48             0.2222899    0.700115468880    0.391957393099

 C         

     17   S      49            71.6168373    0.154328967295
     17   S      50            13.0450963    0.535328142282
     17   S      51             3.5305122    0.444634542185

     18   L      52             2.9412494   -0.099967229187    0.155916274999
     18   L      53             0.6834831    0.399512826089    0.607683718598
     18   L      54             0.2222899    0.700115468880    0.391957393099

 O         

     19   S      55           130.7093214    0.154328967295
     19   S      56            23.8088661    0.535328142282
     19   S      57             6.4436083    0.444634542185

     20   L      58             5.0331513   -0.099967229187    0.155916274999
     20   L      59             1.1695961    0.399512826089    0.607683718598
     20   L      60             0.3803890    0.700115468880    0.391957393099

 H         

     21   S      61             3.4252509    0.154328967295
     21   S      62             0.6239137    0.535328142282
     21   S      63             0.1688554    0.444634542185

 H         

     22   S      64             3.4252509    0.154328967295
     22   S      65             0.6239137    0.535328142282
     22   S      66             0.1688554    0.444634542185

 H         

     23   S      67             3.4252509    0.154328967295
     23   S      68             0.6239137    0.535328142282
     23   S      69             0.1688554    0.444634542185

 H         

     24   S      70             3.4252509    0.154328967295
     24   S      71             0.6239137    0.535328142282
     24   S      72             0.1688554    0.444634542185

 H         

     25   S      73             3.4252509    0.154328967295
     25   S      74             0.6239137    0.535328142282
     25   S      75             0.1688554    0.444634542185

 H         

     26   S      76             3.4252509    0.154328967295
     26   S      77             0.6239137    0.535328142282
     26   S      78             0.1688554    0.444634542185

 H         

     27   S      79             3.4252509    0.154328967295
     27   S      80             0.6239137    0.535328142282
     27   S      81             0.1688554    0.444634542185

 H         

     28   S      82             3.4252509    0.154328967295
     28   S      83             0.6239137    0.535328142282
     28   S      84             0.1688554    0.444634542185

 H         

     29   S      85             3.4252509    0.154328967295
     29   S      86             0.6239137    0.535328142282
     29   S      87             0.1688554    0.444634542185

 H         

     30   S      88             3.4252509    0.154328967295
     30   S      89             0.6239137    0.535328142282
     30   S      90             0.1688554    0.444634542185

 TOTAL NUMBER OF BASIS SET SHELLS             =   30
 NUMBER OF CARTESIAN GAUSSIAN BASIS FUNCTIONS =   60
 NUMBER OF ELECTRONS                          =   72
 CHARGE OF MOLECULE                           =    0
 SPIN MULTIPLICITY                            =    1
 NUMBER OF OCCUPIED ORBITALS (ALPHA)          =   36
 NUMBER OF OCCUPIED ORBITALS (BETA )          =   36
 TOTAL NUMBER OF ATOMS                        =   20
 THE NUCLEAR REPULSION ENERGY IS      511.4290011934

     $CONTRL OPTIONS
     ---------------
 SCFTYP=RHF          RUNTYP=IRC          EXETYP=RUN     
 MPLEVL=       0     CITYP =NONE         CCTYP =NONE         VBTYP =NONE    
 DFTTYP=NONE         TDDFT =NONE    
 MULT  =       1     ICHARG=       0     NZVAR =       0     COORD =UNIQUE  
 PP    =NONE         RELWFN=NONE         LOCAL =NONE         NUMGRD=       F
 ISPHER=      -1     NOSYM =       0     MAXIT =      30     UNITS =ANGS    
 PLTORB=       F     MOLPLT=       F     AIMPAC=       F     FRIEND=        
 NPRINT=       7     IREST =       0     GEOM  =INPUT   
 NORMF =       0     NORMP =       0     ITOL  =      20     ICUT  =       9
 INTTYP=BEST         GRDTYP=BEST         QMTTOL= 1.0E-06

     $SYSTEM OPTIONS
     ---------------
  REPLICATED MEMORY=     1000000 WORDS (ON EVERY NODE).
 DISTRIBUTED MEMDDI=           0 MILLION WORDS IN AGGREGATE,
 MEMDDI DISTRIBUTED OVER   1 PROCESSORS IS           0 WORDS/PROCESSOR.
 TOTAL MEMORY REQUESTED ON EACH PROCESSOR=     1000000 WORDS.
 TIMLIM=      525600.00 MINUTES, OR     365.0 DAYS.
 PARALL= F  BALTYP=  DLB     KDIAG=    0  COREFL= F
 MXSEQ2=     300 MXSEQ3=     150  mem10=         0

          ----------------
          PROPERTIES INPUT
          ----------------

     MOMENTS            FIELD           POTENTIAL          DENSITY
 IEMOM =       1   IEFLD =       0   IEPOT =       0   IEDEN =       0
 WHERE =COMASS     WHERE =NUCLEI     WHERE =NUCLEI     WHERE =NUCLEI  
 OUTPUT=BOTH       OUTPUT=BOTH       OUTPUT=BOTH       OUTPUT=BOTH    
 IEMINT=       0   IEFINT=       0                     IEDINT=       0
                                                       MORB  =       0
          EXTRAPOLATION IN EFFECT
          SOSCF IN EFFECT
 ORBITAL PRINTING OPTION: NPREO=     1    60     2     1

     -------------------------------
     INTEGRAL TRANSFORMATION OPTIONS
     -------------------------------
     NWORD  =            0
     CUTOFF = 1.0E-09     MPTRAN =       0
     DIRTRF =       F     AOINTS =DUP     

          ----------------------
          INTEGRAL INPUT OPTIONS
          ----------------------
 NOPK  =       1 NORDER=       0 SCHWRZ=       T

     ------------------------------------------
     THE POINT GROUP IS C1 , NAXIS= 0, ORDER= 1
     ------------------------------------------

     DIMENSIONS OF THE SYMMETRY SUBSPACES ARE
 A   =   60

 ..... DONE SETTING UP THE RUN .....
 STEP CPU TIME =     0.05 TOTAL CPU TIME =          0.0 (      0.0 MIN)
 TOTAL WALL CLOCK TIME=          0.1 SECONDS, CPU UTILIZATION IS    71.43%

          -----------------------------
          INTRINSIC REACTION COORDINATE
          -----------------------------
          PACE   =GS2     
          STRIDE = 0.10000 BOHR*SQRT(AMU)
          NPOINT =     100
          NEXTPT =       0
          STOTAL =  0.0000 BOHR*SQRT(AMU)
          SAB    =  0.0000 BOHR*SQRT(AMU)
          NPRT   =       0
          NPUN   =       0

          SADDLE =       T
          TSENGY =       T
          FORWRD =       F
          EVIB   = 0.00050 HARTREE
          FREQ   =     0.0 CM**-1

          STABLZ =       F
          ELBOW  =  175.00 DEGREES
          DELTA  = 0.02500 BOHR

          READQB =       F
          EB     =        0.0000000000 HARTREES
          GBNORM =        0.0000000000 HARTREES/SQRT(AMU)-BOHR

          GCUT   = 0.0000500 HARTREES/SQRT(AMU)-BOHR
          RCUT   = 0.0005000 BOHR
          ACUT   =    5.00 DEGREES
          MXOPT  =      20
          IHUPD  =       2

 ATOMIC MASSES USED (IN AMU) ARE
     C             12.0000
     C             12.0000
     C             12.0000
     C             12.0000
     C             12.0000
     C             12.0000
     C             12.0000
     C             12.0000
     C             12.0000
     O             15.9949
     H              1.0078
     H              1.0078
     H              1.0078
     H              1.0078
     H              1.0078
     H              1.0078
     H              1.0078
     H              1.0078
     H              1.0078
     H              1.0078

 JUMP AWAY FROM SADDLE POINT WILL BE FOUND FROM THE INPUT HESSIAN MATRIX

 COMPUTING WAVEFUNCTION AT TRANSITION STATE...

          ********************
          1 ELECTRON INTEGRALS
          ********************
 ...... END OF ONE-ELECTRON INTEGRALS ......
 STEP CPU TIME =     0.02 TOTAL CPU TIME =          0.1 (      0.0 MIN)
 TOTAL WALL CLOCK TIME=          0.1 SECONDS, CPU UTILIZATION IS    63.64%

          -------------
          GUESS OPTIONS
          -------------
          GUESS =HUCKEL            NORB  =       0          NORDER=       0
          MIX   =       F          PRTMO =       F          PUNMO =       F
          TOLZ  = 1.0E-08          TOLE  = 1.0E-05
          SYMDEN=       F          PURIFY=       F

 INITIAL GUESS ORBITALS GENERATED BY HUCKEL   ROUTINE.
 HUCKEL GUESS REQUIRES     53820 WORDS.

 SYMMETRIES FOR INITIAL GUESS ORBITALS FOLLOW.   BOTH SET(S).
    36 ORBITALS ARE OCCUPIED (   10 CORE ORBITALS).
    11=A       12=A       13=A       14=A       15=A       16=A       17=A   
    18=A       19=A       20=A       21=A       22=A       23=A       24=A   
    25=A       26=A       27=A       28=A       29=A       30=A       31=A   
    32=A       33=A       34=A       35=A       36=A       37=A       38=A   
    39=A       40=A       41=A       42=A       43=A       44=A       45=A   
    46=A   
 ...... END OF INITIAL ORBITAL SELECTION ......
 STEP CPU TIME =     0.02 TOTAL CPU TIME =          0.1 (      0.0 MIN)
 TOTAL WALL CLOCK TIME=          0.1 SECONDS, CPU UTILIZATION IS    69.23%

                    ----------------------
                    AO INTEGRAL TECHNOLOGY
                    ----------------------
     S,P,L SHELL ROTATED AXIS INTEGRALS, REPROGRAMMED BY
        KAZUYA ISHIMURA (IMS) AND JOSE SIERRA (SYNSTAR).
     S,P,D,L SHELL ROTATED AXIS INTEGRALS PROGRAMMED BY
        KAZUYA ISHIMURA (INSTITUTE FOR MOLECULAR SCIENCE).
     S,P,D,F,G SHELL TO TOTAL QUARTET ANGULAR MOMENTUM SUM 5,
        ERIC PROGRAM BY GRAHAM FLETCHER (ELORET AND NASA ADVANCED
        SUPERCOMPUTING DIVISION, AMES RESEARCH CENTER).
     S,P,D,F,G,L SHELL GENERAL RYS QUADRATURE PROGRAMMED BY
        MICHEL DUPUIS (PACIFIC NORTHWEST NATIONAL LABORATORY).

          --------------------
          2 ELECTRON INTEGRALS
          --------------------

 THE -PK- OPTION IS OFF, THE INTEGRALS ARE NOT IN SUPERMATRIX FORM.
 STORING   15000 INTEGRALS/RECORD ON DISK, USING 12 BYTES/INTEGRAL.
 TWO ELECTRON INTEGRAL EVALUATION REQUIRES   89821 WORDS OF MEMORY.
 SCHWARZ INEQUALITY OVERHEAD:      1797 INTEGRALS, T=        0.00
 II,JST,KST,LST =  1  1  1  1 NREC =         1 INTLOC =    1
 II,JST,KST,LST =  2  1  1  1 NREC =         1 INTLOC =    2
 II,JST,KST,LST =  3  1  1  1 NREC =         1 INTLOC =   34
 II,JST,KST,LST =  4  1  1  1 NREC =         1 INTLOC =  144
 II,JST,KST,LST =  5  1  1  1 NREC =         1 INTLOC = 1366
 II,JST,KST,LST =  6  1  1  1 NREC =         1 INTLOC = 1964
 II,JST,KST,LST =  7  1  1  1 NREC =         1 INTLOC = 6866
 II,JST,KST,LST =  8  1  1  1 NREC =         1 INTLOC = 8488
 II,JST,KST,LST =  9  1  1  1 NREC =         2 INTLOC = 5919
 II,JST,KST,LST = 10  1  1  1 NREC =         2 INTLOC = 9728
 II,JST,KST,LST = 11  1  1  1 NREC =         4 INTLOC = 5106
 II,JST,KST,LST = 12  1  1  1 NREC =         4 INTLOC =12238
 II,JST,KST,LST = 13  1  1  1 NREC =         7 INTLOC =12392
 II,JST,KST,LST = 14  1  1  1 NREC =         8 INTLOC = 8581
 II,JST,KST,LST = 15  1  1  1 NREC =        13 INTLOC = 5616
 II,JST,KST,LST = 16  1  1  1 NREC =        14 INTLOC = 7894
 II,JST,KST,LST = 17  1  1  1 NREC =        21 INTLOC =11389
 II,JST,KST,LST = 18  1  1  1 NREC =        23 INTLOC = 7326
 II,JST,KST,LST = 19  1  1  1 NREC =        33 INTLOC =14563
 II,JST,KST,LST = 20  1  1  1 NREC =        35 INTLOC =10208
 II,JST,KST,LST = 21  1  1  1 NREC =        47 INTLOC =11732
 II,JST,KST,LST = 22  1  1  1 NREC =        51 INTLOC = 7284
 II,JST,KST,LST = 23  1  1  1 NREC =        55 INTLOC =11527
 II,JST,KST,LST = 24  1  1  1 NREC =        59 INTLOC =14993
 II,JST,KST,LST = 25  1  1  1 NREC =        64 INTLOC =13805
 II,JST,KST,LST = 26  1  1  1 NREC =        69 INTLOC =14379
 II,JST,KST,LST = 27  1  1  1 NREC =        75 INTLOC = 6136
 II,JST,KST,LST = 28  1  1  1 NREC =        81 INTLOC = 1328
 II,JST,KST,LST = 29  1  1  1 NREC =        86 INTLOC =14115
 II,JST,KST,LST = 30  1  1  1 NREC =        93 INTLOC = 1710
 SCHWARZ INEQUALITY TEST SKIPPED       23997 INTEGRAL BLOCKS.
 TOTAL NUMBER OF NONZERO TWO-ELECTRON INTEGRALS =             1479218
         99 INTEGRAL RECORDS WERE STORED ON DISK FILE  8.
  ...... END OF TWO-ELECTRON INTEGRALS .....
 STEP CPU TIME =     0.30 TOTAL CPU TIME =          0.4 (      0.0 MIN)
 TOTAL WALL CLOCK TIME=          0.4 SECONDS, CPU UTILIZATION IS    90.70%

          --------------------------
                 RHF SCF CALCULATION
          --------------------------

     NUCLEAR ENERGY =       511.4290011934
     MAXIT =   30     NPUNCH=    2
     EXTRAP=T  DAMP=F  SHIFT=F  RSTRCT=F  DIIS=F  DEM=F  SOSCF=T
     DENSITY MATRIX CONV=  1.00E-05
     SOSCF WILL OPTIMIZE     864 ORBITAL ROTATIONS, SOGTOL=   0.250
     MEMORY REQUIRED FOR RHF ITERS=     59496 WORDS.

 ITER EX DEM     TOTAL ENERGY        E CHANGE  DENSITY CHANGE     ORB. GRAD
   1  0  0     -415.5142732815  -415.5142732815   0.525859196   0.000000000
          ---------------START SECOND ORDER SCF---------------
   2  1  0     -416.0270663907    -0.5127931093   0.266778591   0.066087869
   3  2  0     -416.0575265393    -0.0304601485   0.120290239   0.049836984
   4  3  0     -416.0929946224    -0.0354680831   0.015500405   0.007796439
   5  4  0     -416.0939324315    -0.0009378091   0.004023444   0.003107177
   6  5  0     -416.0940492278    -0.0001167963   0.002212659   0.000765416
   7  6  0     -416.0940624864    -0.0000132586   0.000792778   0.000260791
   8  7  0     -416.0940644486    -0.0000019622   0.000349264   0.000072951
   9  8  0     -416.0940646515    -0.0000002028   0.000209555   0.000030749
  10  9  0     -416.0940646920    -0.0000000405   0.000072844   0.000016900
  11 10  0     -416.0940646988    -0.0000000068   0.000022431   0.000004081
  12 11  0     -416.0940647001    -0.0000000013   0.000006738   0.000001594
  13 12  0     -416.0940647003    -0.0000000002   0.000003316   0.000000697

          -----------------
          DENSITY CONVERGED
          -----------------
     TIME TO FORM FOCK OPERATORS=       0.3 SECONDS (       0.0 SEC/ITER)
     TIME TO SOLVE SCF EQUATIONS=       0.0 SECONDS (       0.0 SEC/ITER)

 FINAL RHF ENERGY IS     -416.0940647003 AFTER  13 ITERATIONS

          ------------
          EIGENVECTORS
          ------------

                      1          2          3          4          5
                  -20.2645   -11.1197   -11.0567   -11.0499   -11.0469
                     A          A          A          A          A   
    1  C  1  S   -0.000000   0.000023  -0.026128  -0.005787   0.004761
    2  C  1  S    0.000003  -0.000004  -0.004001   0.000030   0.000145
    3  C  1  X    0.000001   0.000005  -0.001515  -0.000071  -0.000014
    4  C  1  Y    0.000001  -0.000004  -0.001819  -0.000229  -0.000031
    5  C  1  Z    0.000002  -0.000015   0.001331   0.000191   0.000011
    6  C  2  S   -0.000001   0.000011  -0.000490   0.000059  -0.001578
    7  C  2  S    0.000012  -0.000036   0.000325   0.000058   0.002279
    8  C  2  X   -0.000008   0.000062   0.000221   0.000036  -0.000553
    9  C  2  Y    0.000005  -0.000019  -0.000025  -0.000005   0.000213
   10  C  2  Z   -0.000005   0.000010  -0.000002  -0.000050  -0.001450
   11  C  3  S   -0.000005  -0.000235  -0.000702   0.000851  -0.319401
   12  C  3  S   -0.000002   0.000319  -0.000025   0.000065  -0.014564
   13  C  3  X    0.000009  -0.000139  -0.000088  -0.000003  -0.001366
   14  C  3  Y    0.000022  -0.000204  -0.000000   0.000009  -0.001480
   15  C  3  Z   -0.000041   0.000113  -0.000009  -0.000032   0.000784
   16  C  4  S   -0.000024  -0.001691  -0.004272  -0.008205   0.938946
   17  C  4  S    0.000270  -0.005340  -0.000085  -0.000325   0.035028
   18  C  4  X   -0.000270  -0.001277  -0.000098  -0.000139   0.000772
   19  C  4  Y    0.000095   0.001986   0.000177   0.000101   0.000404
   20  C  4  Z   -0.000378   0.003243  -0.000051  -0.000011   0.000281
   21  C  5  S    0.000003  -0.000284   0.003095  -0.001096   0.004059
   22  C  5  S    0.000030   0.000057  -0.006845   0.000031  -0.006586
   23  C  5  X   -0.000059  -0.000030  -0.002894  -0.000111   0.002985
   24  C  5  Y    0.000024   0.000006   0.003225   0.000053   0.001052
   25  C  5  Z    0.000033   0.000037  -0.001432   0.000078   0.002994
   26  C  6  S    0.000003  -0.000243   0.991558   0.018902   0.004182
   27  C  6  S    0.000006  -0.000053   0.036317  -0.004974   0.000158
   28  C  6  X    0.000029   0.000015   0.000362  -0.001429   0.000122
   29  C  6  Y    0.000006   0.000024   0.001157   0.002272   0.000107
   30  C  6  Z    0.000028   0.000098  -0.001148   0.003138   0.000121
   31  C  7  S    0.000005  -0.000271  -0.018103   0.991816   0.008071
   32  C  7  S    0.000054   0.000108  -0.006636   0.035849   0.000221
   33  C  7  X    0.000036  -0.000059   0.001531  -0.000775   0.000149
   34  C  7  Y   -0.000047   0.000055  -0.002657  -0.000184  -0.000071
   35  C  7  Z   -0.000049   0.000038  -0.003044  -0.001495   0.000010
   36  C  8  S   -0.000025  -0.001006  -0.000981   0.020136  -0.001146
   37  C  8  S    0.000269  -0.005677   0.000303  -0.007398   0.000014
   38  C  8  X   -0.000126   0.003425  -0.000012  -0.002034   0.000025
   39  C  8  Y   -0.000095  -0.002063   0.000113  -0.000235   0.000019
   40  C  8  Z   -0.000489   0.000995   0.000131  -0.004084  -0.000058
   41  C  9  S    0.000547   0.992569   0.000254   0.000332   0.002459
   42  C  9  S   -0.007208   0.032683  -0.000002   0.000161  -0.005398
   43  C  9  X    0.002919  -0.000138  -0.000089  -0.000063   0.001340
   44  C  9  Y    0.000086  -0.000185   0.000049  -0.000012  -0.002288
   45  C  9  Z    0.005683  -0.000404  -0.000096  -0.000135  -0.003012
   46  O 10  S    0.994266   0.000160   0.000005   0.000013  -0.000018
   47  O 10  S    0.026004  -0.005797  -0.000052  -0.000116   0.000222
   48  O 10  X    0.002564  -0.000793  -0.000013  -0.000041  -0.000050
   49  O 10  Y    0.000065  -0.000001  -0.000007   0.000011   0.000141
   50  O 10  Z    0.005003  -0.001527  -0.000031  -0.000050   0.000158
   51  H 11  S   -0.000002   0.000002   0.000336  -0.000018  -0.000017
   52  H 12  S   -0.000002   0.000008   0.000336  -0.000975  -0.000033
   53  H 13  S   -0.000002   0.000007  -0.000001   0.000001  -0.000018
   54  H 14  S    0.000085  -0.001088   0.000005  -0.000048   0.002385
   55  H 15  S   -0.000007  -0.000036  -0.000022  -0.000016   0.002366
   56  H 16  S   -0.000178  -0.000019  -0.000094  -0.000002  -0.006634
   57  H 17  S   -0.000020  -0.000055   0.000086  -0.000084   0.000075
   58  H 18  S   -0.000015  -0.000024  -0.006942  -0.000096  -0.000141
   59  H 19  S   -0.000022  -0.000038   0.000207  -0.006826  -0.000109
   60  H 20  S   -0.000191   0.000013  -0.000034   0.000010  -0.000063

                      6          7          8          9         10
                  -11.0460   -11.0458   -11.0267   -11.0150   -11.0080
                     A          A          A          A          A   
    1  C  1  S   -0.201758   0.971041  -0.000211   0.000876  -0.002489
    2  C  1  S   -0.007263   0.035449   0.000043   0.000284  -0.007132
    3  C  1  X    0.000262  -0.001220   0.000029  -0.000018   0.004356
    4  C  1  Y    0.000159  -0.000907  -0.000040  -0.000097  -0.001456
    5  C  1  Z    0.000075   0.000436  -0.000010   0.000003   0.000654
    6  C  2  S    0.002285   0.003839   0.000073  -0.016896   0.991973
    7  C  2  S   -0.004889  -0.007969   0.000026  -0.001097   0.036619
    8  C  2  X    0.002378  -0.003863   0.000004  -0.000376   0.001598
    9  C  2  Y   -0.000748   0.001225   0.000009  -0.000543   0.001744
   10  C  2  Z    0.003987   0.000173  -0.000002   0.000251  -0.001292
   11  C  3  S    0.919367   0.192644  -0.000272   0.000796  -0.002568
   12  C  3  S    0.032637   0.006966   0.000091   0.000295  -0.007150
   13  C  3  X   -0.000881  -0.000329  -0.000025  -0.000040  -0.001691
   14  C  3  Y   -0.001646  -0.000310  -0.000046  -0.000057   0.000472
   15  C  3  Z    0.001222   0.000268  -0.000066   0.000005  -0.004296
   16  C  4  S    0.314533   0.060593   0.001348  -0.003258   0.000512
   17  C  4  S    0.008619   0.001634   0.000232  -0.007194   0.000038
   18  C  4  X    0.001868   0.000377  -0.000007  -0.003088  -0.000077
   19  C  4  Y    0.002088   0.000490   0.000052  -0.001175  -0.000007
   20  C  4  Z   -0.001201  -0.000269  -0.000049  -0.003208  -0.000145
   21  C  5  S    0.000766  -0.000592  -0.002719   0.991966   0.017128
   22  C  5  S   -0.002066  -0.000482  -0.000213   0.036580   0.000147
   23  C  5  X    0.000921   0.000150  -0.000070  -0.001318   0.000380
   24  C  5  Y    0.000299   0.000062   0.000140  -0.002117   0.000362
   25  C  5  Z    0.000948   0.000177   0.000163   0.000706  -0.000330
   26  C  6  S   -0.003449   0.027021   0.000634  -0.002283   0.000391
   27  C  6  S    0.000495  -0.001984   0.000394  -0.007128   0.000042
   28  C  6  X   -0.000216   0.001617   0.000137   0.002898   0.000133
   29  C  6  Y   -0.000288   0.001790  -0.000070  -0.003303  -0.000068
   30  C  6  Z    0.000344  -0.001322  -0.000066   0.001349   0.000049
   31  C  7  S    0.000700   0.005548  -0.019610   0.001154  -0.000068
   32  C  7  S    0.000014   0.000180  -0.008948   0.000136   0.000008
   33  C  7  X    0.000050   0.000023   0.002078   0.000061  -0.000041
   34  C  7  Y   -0.000003  -0.000074   0.000246  -0.000135  -0.000026
   35  C  7  Z    0.000007   0.000012   0.004219   0.000118  -0.000006
   36  C  8  S   -0.000201   0.000256   0.991965   0.002810  -0.000032
   37  C  8  S    0.000063   0.000027   0.036555   0.000039  -0.000015
   38  C  8  X   -0.000031  -0.000014   0.000770   0.000033  -0.000002
   39  C  8  Y   -0.000017  -0.000019   0.000267  -0.000175  -0.000003
   40  C  8  Z   -0.000011   0.000009   0.001737  -0.000098  -0.000003
   41  C  9  S    0.001094   0.000196   0.001995   0.000354  -0.000008
   42  C  9  S   -0.001652  -0.000304  -0.005871   0.000110  -0.000015
   43  C  9  X    0.000410   0.000074  -0.003504  -0.000161   0.000011
   44  C  9  Y   -0.000742  -0.000143   0.002138  -0.000053  -0.000046
   45  C  9  Z   -0.000960  -0.000180  -0.000832  -0.000051   0.000023
   46  O 10  S   -0.000014  -0.000002  -0.000022   0.000008  -0.000000
   47  O 10  S    0.000105   0.000018   0.000248  -0.000084   0.000007
   48  O 10  X   -0.000036  -0.000009   0.000186   0.000008   0.000007
   49  O 10  Y    0.000032   0.000003  -0.000109   0.000010   0.000005
   50  O 10  Z    0.000083   0.000015   0.000057  -0.000050   0.000002
   51  H 11  S    0.001303  -0.006811  -0.000010  -0.000030   0.000098
   52  H 12  S    0.001392  -0.006823  -0.000093  -0.000065  -0.000011
   53  H 13  S    0.000034   0.000064  -0.000004   0.000130  -0.007015
   54  H 14  S   -0.006401  -0.001386  -0.000219  -0.000047  -0.000003
   55  H 15  S   -0.006351  -0.001444  -0.000019  -0.000042   0.000096
   56  H 16  S   -0.002062  -0.000416  -0.000098   0.000108  -0.000034
   57  H 17  S    0.000028   0.000006  -0.000042  -0.006928  -0.000106
   58  H 18  S   -0.000069  -0.000066  -0.000092   0.000097  -0.000047
   59  H 19  S   -0.000034   0.000002   0.000270  -0.000106  -0.000002
   60  H 20  S   -0.000024  -0.000008  -0.006866  -0.000079   0.000001

                     11         12         13         14         15
                   -1.3155    -1.0943    -1.0174    -0.9712    -0.9379
                     A          A          A          A          A   
    1  C  1  S   -0.000756  -0.059792  -0.097205   0.080178  -0.074555
    2  C  1  S    0.001831   0.158781   0.262366  -0.221580   0.213974
    3  C  1  X   -0.000150  -0.014620  -0.077196   0.037635   0.031040
    4  C  1  Y    0.000283   0.018106   0.013058   0.005912   0.011117
    5  C  1  Z   -0.000465  -0.019508  -0.006879   0.003239  -0.000143
    6  C  2  S   -0.001090  -0.059954  -0.141189   0.073247   0.017155
    7  C  2  S    0.002398   0.149294   0.366195  -0.194307  -0.046121
    8  C  2  X    0.000194   0.025136   0.034048  -0.038684   0.069286
    9  C  2  Y    0.000317   0.004964   0.005857   0.012701  -0.019691
   10  C  2  Z   -0.001051  -0.025561  -0.051156   0.000082   0.062621
   11  C  3  S   -0.003421  -0.054250  -0.113337   0.017269   0.095707
   12  C  3  S    0.008302   0.143965   0.306966  -0.043915  -0.271862
   13  C  3  X    0.001834   0.024529   0.025629  -0.000125   0.000164
   14  C  3  Y    0.000693   0.004042  -0.014664   0.032089  -0.000991
   15  C  3  Z   -0.002164   0.017498   0.066825  -0.049803   0.005643
   16  C  4  S   -0.021302  -0.088122  -0.014265  -0.130114   0.075466
   17  C  4  S    0.053389   0.231617   0.041447   0.361139  -0.217562
   18  C  4  X    0.009364   0.046246  -0.027707   0.054105   0.019301
   19  C  4  Y   -0.013810  -0.007813  -0.007407   0.033867   0.034203
   20  C  4  Z   -0.021187   0.029507   0.019344   0.034510   0.045802
   21  C  5  S   -0.005510  -0.106522   0.005208  -0.125182  -0.055116
   22  C  5  S    0.012541   0.267440  -0.013591   0.334622   0.150096
   23  C  5  X   -0.002491  -0.001289  -0.025743  -0.053814   0.081896
   24  C  5  Y   -0.003078  -0.064584   0.007654  -0.024818  -0.042404
   25  C  5  Z   -0.004284  -0.014040   0.004011  -0.041014   0.073705
   26  C  6  S   -0.003185  -0.112357   0.030823  -0.014430  -0.131476
   27  C  6  S    0.007596   0.296680  -0.082973   0.035693   0.373977
   28  C  6  X   -0.001087  -0.027078  -0.031629  -0.054177  -0.007391
   29  C  6  Y    0.000187   0.009101   0.006928   0.091965   0.027268
   30  C  6  Z   -0.002646  -0.047522   0.048747  -0.002026   0.013674
   31  C  7  S   -0.005954  -0.101256   0.101132   0.099186  -0.000323
   32  C  7  S    0.014149   0.257806  -0.266172  -0.267061   0.004668
   33  C  7  X   -0.004223  -0.046549   0.031226   0.017624   0.013477
   34  C  7  Y    0.000794   0.025956  -0.006003   0.023982   0.041295
   35  C  7  Z   -0.005228  -0.010616   0.055130   0.063081   0.125890
   36  C  8  S   -0.021556  -0.079543   0.099515   0.095188   0.091779
   37  C  8  S    0.052420   0.199601  -0.258330  -0.252504  -0.248507
   38  C  8  X   -0.023003   0.006749  -0.022143  -0.042685   0.023233
   39  C  8  Y    0.014444   0.018337  -0.012353   0.011765  -0.015749
   40  C  8  Z   -0.004532   0.058981  -0.059447  -0.056301  -0.003620
   41  C  9  S   -0.127526  -0.035239   0.023030  -0.013454   0.067227
   42  C  9  S    0.295208   0.097807  -0.066228   0.038146  -0.198397
   43  C  9  X   -0.070962   0.037732  -0.057882  -0.056219  -0.050283
   44  C  9  Y   -0.002414   0.002292   0.024108   0.066474   0.006473
   45  C  9  Z   -0.136455   0.082481  -0.023017   0.056834  -0.106808
   46  O 10  S   -0.214565   0.037889  -0.015667   0.010110  -0.047851
   47  O 10  S    0.749549  -0.141356   0.060117  -0.039623   0.191029
   48  O 10  X    0.075702  -0.004105  -0.009715  -0.015670  -0.007895
   49  O 10  Y    0.001637   0.000513   0.004976   0.017472   0.001568
   50  O 10  Z    0.148323  -0.005450   0.002505   0.011471  -0.021781
   51  H 11  S    0.000194   0.030072   0.057132  -0.056170   0.068436
   52  H 12  S    0.000434   0.038724   0.056036  -0.065728   0.062399
   53  H 13  S    0.000317   0.029482   0.083916  -0.047173  -0.011492
   54  H 14  S    0.003555   0.033579   0.070855  -0.010569  -0.085024
   55  H 15  S    0.001358   0.026505   0.067949  -0.005373  -0.080715
   56  H 16  S    0.008757   0.040206   0.014604   0.093314  -0.063521
   57  H 17  S    0.001499   0.049773   0.001792   0.086020   0.045337
   58  H 18  S    0.000807   0.055401  -0.016423   0.003981   0.117757
   59  H 19  S    0.001597   0.048257  -0.060384  -0.074619   0.007670
   60  H 20  S    0.008698   0.034038  -0.057385  -0.068555  -0.068007

                     16         17         18         19         20
                   -0.8528    -0.7758    -0.7541    -0.7087    -0.6569
                     A          A          A          A          A   
    1  C  1  S   -0.130129   0.038300  -0.006709   0.067447   0.005555
    2  C  1  S    0.378998  -0.119076   0.025545  -0.216389  -0.016770
    3  C  1  X   -0.020648  -0.086073   0.073584  -0.148611   0.052500
    4  C  1  Y   -0.035494   0.059287  -0.005532   0.122702   0.056600
    5  C  1  Z    0.043114   0.005919  -0.013440  -0.005568   0.131463
    6  C  2  S   -0.001249  -0.060881   0.046742  -0.113922  -0.006812
    7  C  2  S    0.003527   0.181728  -0.141516   0.352218   0.024252
    8  C  2  X    0.141612  -0.028005  -0.002263  -0.048401  -0.064218
    9  C  2  Y   -0.045533   0.033578  -0.024048   0.096050   0.077511
   10  C  2  Z    0.116213   0.016162  -0.046890   0.096514   0.102712
   11  C  3  S    0.129193   0.014831  -0.038390   0.066097   0.002731
   12  C  3  S   -0.376308  -0.050291   0.118691  -0.212442  -0.007781
   13  C  3  X    0.048084   0.011343  -0.019363   0.065292  -0.105997
   14  C  3  Y    0.023797  -0.009897  -0.046477   0.045153   0.092985
   15  C  3  Z   -0.016269   0.100432  -0.077491   0.168765   0.000799
   16  C  4  S   -0.062798   0.079641   0.045083  -0.015120  -0.028327
   17  C  4  S    0.182730  -0.247582  -0.133446   0.048706   0.097464
   18  C  4  X    0.046352   0.083256   0.012835   0.039842  -0.175537
   19  C  4  Y    0.017672   0.014070  -0.150870  -0.044659   0.112959
   20  C  4  Z   -0.055161   0.121252  -0.115782  -0.115833  -0.089613
   21  C  5  S    0.006466  -0.098100   0.054277   0.048530   0.027107
   22  C  5  S   -0.018631   0.291436  -0.164901  -0.148965  -0.082675
   23  C  5  X   -0.069537   0.036944   0.134157   0.057078  -0.002434
   24  C  5  Y    0.022758   0.017276  -0.090408  -0.063146   0.128662
   25  C  5  Z   -0.059851   0.088979   0.047039  -0.062461   0.089261
   26  C  6  S    0.072488   0.009500  -0.083707  -0.031681  -0.033425
   27  C  6  S   -0.211203  -0.034352   0.259023   0.099268   0.112007
   28  C  6  X   -0.053969  -0.114127   0.028645   0.071459   0.175354
   29  C  6  Y   -0.024916   0.161960   0.025504  -0.024807   0.043309
   30  C  6  Z    0.035988   0.014692   0.055646  -0.057725   0.229723
   31  C  7  S    0.055340   0.076690   0.085747  -0.021689   0.025875
   32  C  7  S   -0.161048  -0.233631  -0.254362   0.069410  -0.079223
   33  C  7  X   -0.024689  -0.057618  -0.084395   0.000324   0.145892
   34  C  7  Y   -0.023542   0.011086   0.099469   0.071142  -0.062141
   35  C  7  Z   -0.061903  -0.127645   0.098516   0.085325   0.032343
   36  C  8  S   -0.038561  -0.086304  -0.005598   0.042311  -0.032392
   37  C  8  S    0.111441   0.256099   0.028470  -0.127779   0.113664
   38  C  8  X   -0.059134  -0.036434  -0.193865  -0.058451   0.041640
   39  C  8  Y    0.022242  -0.005624   0.084348   0.085722  -0.089235
   40  C  8  Z   -0.043963  -0.103993  -0.111158   0.049160  -0.197284
   41  C  9  S   -0.065261   0.002656  -0.105853  -0.054143  -0.013873
   42  C  9  S    0.199471  -0.008871   0.338974   0.176486   0.044220
   43  C  9  X    0.047216   0.153792   0.086504  -0.019415  -0.007789
   44  C  9  Y    0.014772  -0.122909  -0.061456   0.076496   0.001680
   45  C  9  Z    0.082054  -0.077694   0.080585   0.069601  -0.058132
   46  O 10  S    0.037838  -0.003275   0.058201   0.024420   0.028801
   47  O 10  S   -0.157354   0.014499  -0.255827  -0.109872  -0.137698
   48  O 10  X    0.020934   0.074784   0.070140   0.002314   0.048923
   49  O 10  Y    0.005818  -0.062117  -0.031613   0.046339   0.002382
   50  O 10  Z    0.033257  -0.043014   0.090659   0.069943   0.068169
   51  H 11  S    0.141846  -0.057289   0.018802  -0.120708   0.100728
   52  H 12  S    0.120694  -0.096644   0.026143  -0.177679  -0.081197
   53  H 13  S    0.001053   0.092546  -0.082335   0.232620   0.113175
   54  H 14  S   -0.117782  -0.053220   0.103416  -0.168119  -0.070803
   55  H 15  S   -0.140828  -0.033674   0.046984  -0.121410   0.095294
   56  H 16  S    0.055507  -0.135690  -0.101652  -0.001637   0.195211
   57  H 17  S   -0.009157   0.145640  -0.103339  -0.121313   0.072764
   58  H 18  S   -0.078006  -0.030859   0.137710   0.037893   0.258230
   59  H 19  S   -0.065387  -0.135381  -0.160711   0.015178   0.077884
   60  H 20  S    0.036218   0.135706  -0.013974  -0.121237   0.192895

                     21         22         23         24         25
                   -0.6044    -0.5931    -0.5874    -0.5544    -0.5396
                     A          A          A          A          A   
    1  C  1  S   -0.014343  -0.009299   0.000334   0.000460  -0.005143
    2  C  1  S    0.051357   0.027017   0.003418  -0.001115   0.025365
    3  C  1  X    0.124342   0.026003   0.135295   0.022873   0.155412
    4  C  1  Y    0.033849  -0.041011  -0.109015  -0.163598  -0.142897
    5  C  1  Z    0.233136   0.165856  -0.045830  -0.188731  -0.131248
    6  C  2  S    0.025568   0.007273   0.006314  -0.015832   0.008134
    7  C  2  S   -0.079321  -0.020363  -0.019573   0.052398  -0.026682
    8  C  2  X   -0.100311  -0.060462  -0.134235  -0.077008  -0.148279
    9  C  2  Y    0.107161  -0.004338   0.058089  -0.048046   0.067319
   10  C  2  Z    0.176855   0.122808  -0.038068  -0.111054  -0.093067
   11  C  3  S   -0.012195  -0.010652  -0.006178   0.004929  -0.001786
   12  C  3  S    0.044387   0.034175   0.017657  -0.026094   0.001954
   13  C  3  X   -0.236506  -0.129260  -0.103783  -0.044504  -0.115740
   14  C  3  Y    0.147725  -0.042034   0.113430   0.015735   0.164662
   15  C  3  Z   -0.058364  -0.076210   0.136104   0.162456   0.194069
   16  C  4  S   -0.003289   0.055949  -0.007926   0.020212   0.010098
   17  C  4  S    0.008544  -0.189974   0.022704  -0.070437  -0.034368
   18  C  4  X   -0.010325   0.105439   0.072969  -0.170415   0.080217
   19  C  4  Y    0.004740  -0.086773   0.123197   0.155216  -0.110220
   20  C  4  Z    0.012246  -0.067085   0.190242  -0.149743  -0.059939
   21  C  5  S    0.011584  -0.056423  -0.003910   0.010005  -0.017205
   22  C  5  S   -0.041117   0.192159   0.011974  -0.028353   0.056215
   23  C  5  X    0.042244   0.030740  -0.164425   0.053009   0.103792
   24  C  5  Y   -0.102718   0.188059   0.029036   0.236075  -0.171518
   25  C  5  Z   -0.051823   0.114455  -0.150605   0.144214   0.007999
   26  C  6  S   -0.009897   0.054736   0.011215  -0.001549  -0.007198
   27  C  6  S    0.032795  -0.191855  -0.034553   0.007340   0.021438
   28  C  6  X   -0.064357  -0.004083   0.078704   0.092206  -0.187356
   29  C  6  Y    0.015118   0.053729  -0.198099  -0.006380   0.081829
   30  C  6  Z   -0.070513  -0.037656  -0.095135   0.027147  -0.043921
   31  C  7  S    0.003687  -0.045458  -0.009939  -0.006528   0.018366
   32  C  7  S   -0.024343   0.151366   0.052172   0.011445  -0.061753
   33  C  7  X   -0.205310   0.133910   0.042317  -0.225714   0.062731
   34  C  7  Y    0.115688  -0.073323   0.045593   0.104314  -0.091109
   35  C  7  Z   -0.137892   0.001660   0.252990  -0.129168  -0.027793
   36  C  8  S   -0.020898   0.045758   0.022471  -0.020218   0.004384
   37  C  8  S    0.055370  -0.151599  -0.062458   0.058486  -0.013165
   38  C  8  X    0.037394  -0.071534  -0.196862  -0.014850   0.144850
   39  C  8  Y    0.061880   0.111347   0.087734   0.110683  -0.141305
   40  C  8  Z    0.160610   0.123849  -0.131035   0.212365  -0.100430
   41  C  9  S    0.042811  -0.080181  -0.012343  -0.009092  -0.022760
   42  C  9  S   -0.146953   0.279841   0.039798   0.029266   0.077334
   43  C  9  X    0.025884  -0.039319   0.247318   0.020259  -0.180580
   44  C  9  Y    0.028295   0.020998  -0.152626   0.055760   0.172825
   45  C  9  Z    0.057884  -0.013221  -0.120927  -0.037617  -0.046929
   46  O 10  S   -0.041042   0.049812   0.005354   0.009103   0.034295
   47  O 10  S    0.202028  -0.245434  -0.026159  -0.046547  -0.178370
   48  O 10  X   -0.095807   0.078910   0.238437   0.003327  -0.029772
   49  O 10  Y    0.028025   0.023977  -0.153363   0.083037   0.169061
   50  O 10  Z   -0.145925   0.225823  -0.088361   0.054702   0.248921
   51  H 11  S    0.228576   0.143388   0.000717  -0.148349  -0.056409
   52  H 12  S   -0.071955  -0.018390   0.130203   0.198071   0.208060
   53  H 13  S    0.140124   0.081057   0.039026  -0.035052   0.012456
   54  H 14  S   -0.077741   0.066910  -0.151179  -0.117919  -0.235403
   55  H 15  S    0.238591   0.098289   0.109450   0.022766   0.131343
   56  H 16  S    0.019380  -0.176611  -0.001080   0.190841  -0.112320
   57  H 17  S   -0.107576   0.259212  -0.024432   0.208441  -0.101284
   58  H 18  S   -0.051621  -0.096153  -0.063747   0.063454  -0.112446
   59  H 19  S   -0.212456   0.194908   0.074850  -0.223253   0.051564
   60  H 20  S   -0.075953  -0.217895  -0.049132  -0.160315   0.169695

                     26         27         28         29         30
                   -0.5170    -0.5079    -0.4880    -0.4776    -0.4470
                     A          A          A          A          A   
    1  C  1  S   -0.009319   0.009040   0.008103  -0.029637   0.009781
    2  C  1  S    0.036827  -0.019977  -0.031980   0.103539  -0.036556
    3  C  1  X   -0.103837   0.206090  -0.054968  -0.235334   0.139532
    4  C  1  Y    0.178189   0.097587  -0.153447   0.106928  -0.093100
    5  C  1  Z   -0.074873  -0.034927  -0.213779  -0.118609   0.144222
    6  C  2  S    0.013600   0.015961  -0.008843   0.005980  -0.003192
    7  C  2  S   -0.048238  -0.057044   0.037328  -0.026275   0.011722
    8  C  2  X    0.190658  -0.065617  -0.027646   0.275414  -0.169899
    9  C  2  Y    0.056532   0.211659   0.028538  -0.089650   0.022116
   10  C  2  Z    0.090308  -0.109715   0.307284  -0.049835  -0.119192
   11  C  3  S    0.009418  -0.000532   0.032607  -0.001515  -0.005691
   12  C  3  S   -0.023556   0.009704  -0.113518   0.009964   0.018341
   13  C  3  X   -0.030582   0.171401  -0.125416  -0.195241   0.160849
   14  C  3  Y    0.136133   0.177578  -0.006823   0.238790  -0.066131
   15  C  3  Z   -0.148014   0.100405  -0.223315   0.010827   0.129509
   16  C  4  S    0.009652  -0.008689   0.001913   0.001194   0.000426
   17  C  4  S   -0.027098   0.042903  -0.006916   0.002781   0.006565
   18  C  4  X   -0.268590  -0.046772  -0.039326  -0.027863  -0.255566
   19  C  4  Y    0.044247  -0.220735  -0.073079  -0.072586   0.045380
   20  C  4  Z    0.073383   0.099708  -0.111795  -0.067363  -0.181368
   21  C  5  S    0.010417   0.020069  -0.006979   0.006903  -0.001641
   22  C  5  S   -0.038539  -0.070441   0.027089  -0.024169   0.005111
   23  C  5  X   -0.001929  -0.174996   0.068464   0.071891   0.293818
   24  C  5  Y   -0.092771   0.025784   0.061921  -0.041706  -0.122217
   25  C  5  Z    0.148315   0.165852   0.080481   0.087742   0.168916
   26  C  6  S   -0.019107   0.011953  -0.005474   0.010886  -0.004893
   27  C  6  S    0.074946  -0.033727   0.016982  -0.042293   0.006416
   28  C  6  X   -0.211015  -0.062098  -0.013445  -0.069883  -0.204668
   29  C  6  Y   -0.087781  -0.104821  -0.033121   0.125453   0.217896
   30  C  6  Z   -0.126055   0.249057  -0.100843   0.102467  -0.159681
   31  C  7  S   -0.021615   0.001879   0.011261   0.004074  -0.002233
   32  C  7  S    0.078972  -0.013351  -0.026635  -0.016029   0.015121
   33  C  7  X   -0.117345  -0.060352  -0.013166   0.184816   0.141855
   34  C  7  Y   -0.000300  -0.192109  -0.039260  -0.086413  -0.044273
   35  C  7  Z    0.048214  -0.050984   0.179406  -0.057315   0.024485
   36  C  8  S    0.009484  -0.005616  -0.001263   0.004310   0.011397
   37  C  8  S   -0.035753   0.014568   0.016034  -0.015935  -0.039805
   38  C  8  X   -0.031516  -0.122744  -0.115762  -0.069144  -0.097448
   39  C  8  Y   -0.065267  -0.056075  -0.112443   0.142390   0.062043
   40  C  8  Z    0.043650   0.164287  -0.119273   0.006570  -0.051363
   41  C  9  S   -0.007871  -0.011114   0.009334  -0.015195   0.000791
   42  C  9  S    0.020155   0.045288  -0.028124   0.061111  -0.000912
   43  C  9  X   -0.125846  -0.088332  -0.050142   0.200065   0.106602
   44  C  9  Y   -0.181595  -0.181485  -0.112622   0.053844  -0.107741
   45  C  9  Z   -0.234458   0.181050   0.231627   0.128034   0.068473
   46  O 10  S    0.051711  -0.017245  -0.031198  -0.026260  -0.013447
   47  O 10  S   -0.276049   0.093056   0.171589   0.146754   0.078006
   48  O 10  X    0.178957  -0.173465  -0.259985   0.018429   0.045618
   49  O 10  Y   -0.153953  -0.143360  -0.093206   0.024257  -0.168421
   50  O 10  Z    0.308881  -0.039026  -0.170317  -0.266260  -0.204712
   51  H 11  S   -0.085352   0.033297  -0.240199  -0.138422   0.170247
   52  H 12  S   -0.096899   0.005508   0.214792  -0.053667   0.021215
   53  H 13  S   -0.009421   0.031959   0.264835  -0.215024   0.003403
   54  H 14  S   -0.014247  -0.118821   0.095327  -0.227878   0.010455
   55  H 15  S    0.082203  -0.092487   0.073510   0.275945  -0.179041
   56  H 16  S    0.163346  -0.119255   0.008732  -0.003914   0.260564
   57  H 17  S   -0.005215   0.104259   0.100160  -0.008291  -0.046505
   58  H 18  S   -0.201843   0.092799  -0.084742   0.027357  -0.202988
   59  H 19  S   -0.044966   0.033360   0.029193   0.181772   0.168512
   60  H 20  S   -0.026989  -0.118656   0.113313  -0.116700  -0.056124

                     31         32         33         34         35
                   -0.4434    -0.4185    -0.3647    -0.3155    -0.2824
                     A          A          A          A          A   
    1  C  1  S   -0.008528   0.002737  -0.002588  -0.000070   0.027064
    2  C  1  S    0.036444   0.004707  -0.005950   0.000918  -0.128635
    3  C  1  X    0.005198   0.182070  -0.027346  -0.011315  -0.180718
    4  C  1  Y    0.179263   0.130543  -0.190597   0.031835  -0.244614
    5  C  1  Z    0.118441  -0.149056   0.008187   0.012702   0.185313
    6  C  2  S    0.003258   0.020123   0.012902  -0.004043  -0.006617
    7  C  2  S   -0.017019  -0.071301  -0.049084   0.013479   0.027402
    8  C  2  X    0.070586  -0.028671   0.066349   0.011138   0.016095
    9  C  2  Y    0.007024   0.215055   0.127317  -0.005840  -0.110122
   10  C  2  Z   -0.165445   0.101977   0.044486  -0.020409   0.050024
   11  C  3  S   -0.016421  -0.003709  -0.013770  -0.002325  -0.012556
   12  C  3  S    0.058401   0.014474   0.076270   0.010720   0.070018
   13  C  3  X    0.027225   0.091805   0.228200  -0.007871   0.141550
   14  C  3  Y    0.054180  -0.069126   0.269905   0.023323   0.174079
   15  C  3  Z    0.120411  -0.169536  -0.130251   0.021545  -0.055974
   16  C  4  S    0.025356   0.008798  -0.017283  -0.030995  -0.008918
   17  C  4  S   -0.092519  -0.029836   0.092268   0.141380   0.051206
   18  C  4  X   -0.039499  -0.046332  -0.157499   0.115653  -0.147777
   19  C  4  Y   -0.066612  -0.011881  -0.286442  -0.180462  -0.144101
   20  C  4  Z   -0.122595  -0.023871   0.146442  -0.258014   0.181273
   21  C  5  S    0.005244   0.016577   0.012163   0.006351  -0.003719
   22  C  5  S   -0.011120  -0.061852  -0.043273  -0.019896   0.011216
   23  C  5  X   -0.015257  -0.072318  -0.017482   0.085591   0.039636
   24  C  5  Y    0.193580  -0.035283   0.031662   0.129816  -0.049392
   25  C  5  Z    0.128857   0.144071   0.090515  -0.002029   0.048275
   26  C  6  S   -0.003087  -0.007896   0.018742  -0.001576   0.005783
   27  C  6  S    0.022574   0.042337  -0.082601   0.009818  -0.047570
   28  C  6  X   -0.001685  -0.200250   0.198839   0.050944   0.163681
   29  C  6  Y   -0.259336  -0.131885   0.085329  -0.074169   0.155591
   30  C  6  Z   -0.221111   0.114267  -0.134581  -0.038778  -0.115415
   31  C  7  S   -0.011242   0.004107  -0.010049  -0.011982  -0.005122
   32  C  7  S    0.058253  -0.013301   0.039798   0.043418   0.020652
   33  C  7  X   -0.071054   0.012514   0.165557  -0.163043  -0.220331
   34  C  7  Y    0.165514  -0.056250   0.368979  -0.068743  -0.253546
   35  C  7  Z    0.280851  -0.011180  -0.089099   0.019805   0.162064
   36  C  8  S   -0.004210  -0.000249   0.005900   0.036783  -0.007050
   37  C  8  S    0.033598   0.000515  -0.024565  -0.164186   0.034033
   38  C  8  X   -0.034686   0.039126   0.245420   0.177406  -0.279688
   39  C  8  Y   -0.034451   0.098427   0.248195  -0.269691  -0.305580
   40  C  8  Z   -0.208066  -0.023969  -0.120564   0.079805   0.114665
   41  C  9  S   -0.003416  -0.002244   0.008101   0.000924   0.008857
   42  C  9  S    0.014516   0.011812  -0.029901  -0.001870  -0.037468
   43  C  9  X   -0.012384   0.261536  -0.030316  -0.107718   0.104052
   44  C  9  Y    0.122351   0.327838   0.012356   0.155335   0.084904
   45  C  9  Z    0.125297  -0.101863  -0.027487   0.053680  -0.092145
   46  O 10  S   -0.011981  -0.002950   0.001019  -0.000346  -0.000145
   47  O 10  S    0.070127   0.017805  -0.008534   0.001786  -0.001871
   48  O 10  X   -0.238277   0.256275   0.082726   0.585263   0.125350
   49  O 10  Y    0.224956   0.373225  -0.059921  -0.415493   0.399010
   50  O 10  Z   -0.046086  -0.184568  -0.007239  -0.296186  -0.041160
   51  H 11  S    0.138076  -0.084677  -0.003626   0.013356   0.075771
   52  H 12  S   -0.194799   0.047809   0.132762  -0.032529   0.025234
   53  H 13  S   -0.164203   0.189569   0.063706  -0.023045  -0.028258
   54  H 14  S   -0.094646   0.175732  -0.049642  -0.048366  -0.062111
   55  H 15  S    0.016339  -0.094150  -0.079806   0.020310  -0.044746
   56  H 16  S   -0.032460   0.015243  -0.118628  -0.109621  -0.033551
   57  H 17  S    0.242394   0.044809   0.078781   0.112477  -0.018986
   58  H 18  S   -0.221817  -0.075070   0.019724  -0.008982   0.083339
   59  H 19  S   -0.069747   0.032965  -0.066826  -0.115216  -0.004251
   60  H 20  S    0.189540  -0.025411   0.040847   0.120352  -0.004815

                     36         37         38         39         40
                   -0.2114     0.1941     0.2213     0.3783     0.3917
                     A          A          A          A          A   
    1  C  1  S   -0.028069   0.011024  -0.038343   0.030041  -0.039698
    2  C  1  S    0.104041  -0.079976   0.188912  -0.130639   0.202116
    3  C  1  X    0.094479  -0.164400   0.167472  -0.135330   0.261219
    4  C  1  Y    0.157519  -0.143710   0.212695  -0.347099   0.283413
    5  C  1  Z   -0.106276   0.093282  -0.156648   0.142642  -0.191518
    6  C  2  S    0.024990   0.022922  -0.003033  -0.002490  -0.005649
    7  C  2  S   -0.120326  -0.127065   0.017342   0.018534   0.043493
    8  C  2  X    0.253620   0.269301  -0.077352  -0.041515  -0.123401
    9  C  2  Y    0.491574   0.485209  -0.056209  -0.098485  -0.222283
   10  C  2  Z   -0.110706  -0.151521  -0.011107   0.041508   0.063114
   11  C  3  S   -0.030848   0.017660   0.032974  -0.051031  -0.009000
   12  C  3  S    0.117085  -0.112562  -0.154929   0.244584   0.059398
   13  C  3  X    0.158347  -0.145145  -0.150951   0.335270   0.021508
   14  C  3  Y    0.175399  -0.198723  -0.149275   0.446937   0.002650
   15  C  3  Z   -0.077967   0.151592   0.079177  -0.177730  -0.110202
   16  C  4  S    0.033836   0.014872  -0.015674   0.053209  -0.023183
   17  C  4  S   -0.134191  -0.094769   0.061118  -0.256035   0.134073
   18  C  4  X    0.101727   0.175828  -0.085267   0.296622  -0.058930
   19  C  4  Y    0.176544   0.190045  -0.110314   0.366907  -0.045087
   20  C  4  Z   -0.096179  -0.088364   0.077978  -0.295834   0.094707
   21  C  5  S   -0.024937   0.022704  -0.002366   0.007309   0.020402
   22  C  5  S    0.119016  -0.126020   0.011704  -0.040763  -0.112302
   23  C  5  X    0.363844  -0.399607  -0.009799  -0.080215  -0.040416
   24  C  5  Y    0.242207  -0.313071   0.050264   0.014835  -0.034646
   25  C  5  Z   -0.358103   0.368977  -0.072740  -0.003310   0.111130
   26  C  6  S    0.030972   0.016832   0.010645  -0.056179   0.020828
   27  C  6  S   -0.123066  -0.102663  -0.029618   0.287171  -0.087805
   28  C  6  X    0.160937   0.136659   0.077925  -0.325120   0.201331
   29  C  6  Y    0.160110   0.216221   0.060281  -0.261025   0.205435
   30  C  6  Z   -0.104534  -0.144614  -0.053765   0.242670  -0.139464
   31  C  7  S    0.009331  -0.017699   0.004961   0.000456  -0.000823
   32  C  7  S   -0.038582   0.084955  -0.022768  -0.003604   0.007015
   33  C  7  X   -0.012926   0.030029   0.317883   0.260143   0.185004
   34  C  7  Y   -0.080976   0.150136   0.398062   0.342592   0.234409
   35  C  7  Z   -0.013487   0.043401  -0.199905  -0.150012  -0.098806
   36  C  8  S   -0.004574   0.008418  -0.001049  -0.002259  -0.002056
   37  C  8  S    0.020412  -0.037502   0.004843   0.013252   0.011617
   38  C  8  X   -0.107946  -0.091922  -0.207903  -0.189251  -0.294674
   39  C  8  Y   -0.091688  -0.167602  -0.302286  -0.280187  -0.420414
   40  C  8  Z    0.043532   0.061490   0.120963   0.110085   0.163787
   41  C  9  S    0.009394  -0.019905  -0.001429  -0.001270   0.000227
   42  C  9  S   -0.040015   0.095794   0.005358   0.009846  -0.000489
   43  C  9  X    0.031322  -0.044628  -0.258875  -0.011099   0.358887
   44  C  9  Y   -0.041033   0.092034  -0.370366  -0.015093   0.502922
   45  C  9  Z   -0.048578   0.079452   0.145615  -0.005621  -0.191116
   46  O 10  S   -0.000156   0.002396  -0.000375   0.001606  -0.000478
   47  O 10  S   -0.001115  -0.010687   0.002605  -0.010827   0.002587
   48  O 10  X   -0.065691   0.021459   0.306236   0.000220  -0.256153
   49  O 10  Y    0.039768  -0.062893   0.426840   0.007849  -0.356939
   50  O 10  Z    0.049078  -0.040189  -0.160064  -0.019614   0.139575
   51  H 11  S   -0.002698   0.057157  -0.044857  -0.017265  -0.035023
   52  H 12  S    0.077209   0.150068  -0.028991  -0.083541  -0.045204
   53  H 13  S    0.052564   0.020218  -0.000702  -0.000241   0.013969
   54  H 14  S    0.070324   0.142213  -0.009649   0.020685  -0.080122
   55  H 15  S   -0.001653   0.074826   0.025006  -0.009857  -0.038242
   56  H 16  S    0.008047   0.066704   0.021728  -0.007629  -0.093492
   57  H 17  S   -0.063386   0.024059  -0.002775   0.003103   0.033353
   58  H 18  S    0.000883   0.072425  -0.058855  -0.073164  -0.076626
   59  H 19  S    0.024630  -0.034392   0.000905   0.003171  -0.017912
   60  H 20  S   -0.025950   0.047885  -0.013318  -0.017676  -0.011195

                     41         42         43         44         45
                    0.5297     0.5709     0.5867     0.6195     0.6258
                     A          A          A          A          A   
    1  C  1  S   -0.013689  -0.023576   0.000826  -0.006209   0.036299
    2  C  1  S    0.054110   0.152629  -0.004505   0.041873  -0.227772
    3  C  1  X    0.309450  -0.017041   0.037235  -0.039722  -0.021214
    4  C  1  Y    0.331566   0.065522  -0.146288  -0.060194  -0.191140
    5  C  1  Z   -0.216751   0.259037  -0.156143  -0.058450  -0.347556
    6  C  2  S   -0.034027  -0.020574   0.011701   0.002625   0.045140
    7  C  2  S    0.212433   0.127695  -0.073538  -0.018866  -0.285749
    8  C  2  X   -0.154850  -0.108298   0.084870  -0.044470   0.243258
    9  C  2  Y   -0.329676   0.133060  -0.081516  -0.003466  -0.212048
   10  C  2  Z    0.049855   0.186234  -0.127719  -0.004419  -0.374026
   11  C  3  S   -0.014430  -0.012458   0.023732   0.027329   0.030291
   12  C  3  S    0.057843   0.081332  -0.152141  -0.170222  -0.189534
   13  C  3  X    0.268423  -0.194756   0.151144   0.001964   0.259908
   14  C  3  Y    0.364255   0.171513  -0.041511   0.125937  -0.288856
   15  C  3  Z   -0.247657   0.135262  -0.033454   0.092074  -0.138136
   16  C  4  S    0.046076   0.000969   0.048445   0.106423  -0.009762
   17  C  4  S   -0.242604   0.016764  -0.294643  -0.623079   0.071351
   18  C  4  X    0.301714  -0.232619   0.108126  -0.218214  -0.177619
   19  C  4  Y    0.409259   0.301146  -0.080451   0.152869   0.145734
   20  C  4  Z   -0.143542   0.209873   0.116664   0.512791   0.109018
   21  C  5  S    0.010921  -0.045112   0.018492   0.004065  -0.051719
   22  C  5  S   -0.081761   0.282166  -0.118665  -0.028295   0.325455
   23  C  5  X   -0.258150  -0.022778   0.015575  -0.019697   0.000445
   24  C  5  Y   -0.145345   0.268096  -0.178575   0.147172   0.280264
   25  C  5  Z    0.235717   0.192122  -0.050137  -0.133197   0.166964
   26  C  6  S    0.042589  -0.052123  -0.066793  -0.013310   0.007584
   27  C  6  S   -0.223907   0.328907   0.386618   0.074667  -0.030694
   28  C  6  X    0.226283   0.205312   0.253817  -0.160398  -0.010616
   29  C  6  Y    0.421561   0.110381  -0.263914  -0.050367   0.131711
   30  C  6  Z   -0.226681   0.256912  -0.332461  -0.167589   0.320524
   31  C  7  S   -0.018252  -0.050756   0.024432   0.054545  -0.052284
   32  C  7  S    0.105000   0.307932  -0.132466  -0.363026   0.313322
   33  C  7  X   -0.196018   0.205680   0.360558  -0.194253   0.015640
   34  C  7  Y   -0.160162  -0.147344  -0.426843   0.121831   0.072536
   35  C  7  Z    0.146757   0.118368  -0.244142  -0.145910   0.192490
   36  C  8  S    0.015553   0.013114   0.024467   0.107474   0.001487
   37  C  8  S   -0.091045  -0.055303  -0.126812  -0.662226  -0.003195
   38  C  8  X    0.134350   0.218275   0.477078   0.090161  -0.066190
   39  C  8  Y    0.214245  -0.133739  -0.342044   0.044175   0.047923
   40  C  8  Z   -0.064294  -0.027068  -0.086288   0.391489   0.026845
   41  C  9  S   -0.020649  -0.091774  -0.093771  -0.123880  -0.019418
   42  C  9  S    0.118853   0.540276   0.553758   0.727465   0.112046
   43  C  9  X   -0.207097  -0.006449   0.316303   0.047808  -0.115307
   44  C  9  Y   -0.177212   0.052132  -0.205140   0.215382   0.106338
   45  C  9  Z    0.150681   0.142294   0.048990   0.410397   0.081378
   46  O 10  S    0.003506   0.018709   0.014192   0.006533   0.003863
   47  O 10  S   -0.021101  -0.116922  -0.084843  -0.025379  -0.025094
   48  O 10  X    0.094327  -0.055276  -0.129352   0.016976   0.019119
   49  O 10  Y    0.105695  -0.014131   0.061428  -0.075175  -0.033437
   50  O 10  Z   -0.085109  -0.164148  -0.074701  -0.057142  -0.051101
   51  H 11  S    0.075122  -0.318520   0.158381   0.045282   0.459487
   52  H 12  S    0.000285   0.133347  -0.222895  -0.089724  -0.241499
   53  H 13  S   -0.044212  -0.348184   0.224876  -0.008856   0.658629
   54  H 14  S   -0.008927   0.229095  -0.026035   0.225610  -0.287428
   55  H 15  S    0.070611  -0.286664   0.231556   0.030462   0.443451
   56  H 16  S    0.005853  -0.319489   0.335899   0.217376  -0.236604
   57  H 17  S   -0.040958  -0.514851   0.258476  -0.047139  -0.511000
   58  H 18  S    0.030555  -0.527775  -0.085613   0.194843  -0.235372
   59  H 19  S   -0.012190  -0.461568  -0.417991   0.427617  -0.171470
   60  H 20  S    0.089840  -0.137217  -0.388832   0.657610   0.088437

                     46         47         48         49         50
                    0.6607     0.6978     0.7140     0.7291     0.7432
                     A          A          A          A          A   
    1  C  1  S    0.026939  -0.102923  -0.055737   0.120620  -0.070411
    2  C  1  S   -0.166466   0.655554   0.347058  -0.770563   0.444607
    3  C  1  X    0.076815   0.237059  -0.202912   0.028173   0.268721
    4  C  1  Y    0.168654  -0.240084  -0.073761   0.407524  -0.217737
    5  C  1  Z    0.236342   0.324617  -0.166379   0.359534   0.098123
    6  C  2  S   -0.008928   0.053937   0.077831  -0.012909  -0.012342
    7  C  2  S    0.052161  -0.328267  -0.483352   0.080699   0.104604
    8  C  2  X    0.068634   0.142201  -0.062595   0.260689   0.046735
    9  C  2  Y   -0.035372  -0.024838   0.008969  -0.077575   0.064090
   10  C  2  Z    0.136681   0.041404  -0.078677   0.203055   0.016894
   11  C  3  S    0.002522  -0.062549  -0.127669  -0.091693  -0.073061
   12  C  3  S   -0.018308   0.388017   0.815545   0.589425   0.461003
   13  C  3  X    0.220709   0.169471  -0.402179   0.228732  -0.095392
   14  C  3  Y   -0.118746  -0.253664  -0.071976  -0.450634  -0.145671
   15  C  3  Z    0.061019   0.016056  -0.170736  -0.192257  -0.275096
   16  C  4  S    0.017254  -0.015890  -0.057361   0.025060   0.126610
   17  C  4  S   -0.116755   0.100132   0.372765  -0.139477  -0.789448
   18  C  4  X    0.441590   0.217668   0.028979  -0.178324  -0.111256
   19  C  4  Y   -0.309153   0.045458   0.186136   0.160689  -0.168620
   20  C  4  Z    0.181900   0.104578  -0.068707  -0.019410  -0.081230
   21  C  5  S    0.005897   0.044712   0.067052  -0.000161  -0.145018
   22  C  5  S   -0.043481  -0.279419  -0.433257   0.004026   0.923184
   23  C  5  X    0.296094   0.015613   0.009378  -0.150520  -0.107469
   24  C  5  Y   -0.090960   0.012889   0.033706   0.092673  -0.133639
   25  C  5  Z    0.097228   0.120938  -0.026389  -0.091708   0.019007
   26  C  6  S    0.070783  -0.090738   0.009015  -0.044839   0.116230
   27  C  6  S   -0.419007   0.573763  -0.049643   0.262815  -0.728687
   28  C  6  X   -0.009591   0.396113  -0.242271  -0.095118  -0.028910
   29  C  6  Y    0.086169   0.084728   0.209571  -0.082768  -0.250926
   30  C  6  Z    0.471099   0.094774  -0.053781  -0.186923  -0.115464
   31  C  7  S   -0.111345   0.088471  -0.075172   0.042364  -0.027501
   32  C  7  S    0.682962  -0.576850   0.474919  -0.257737   0.168300
   33  C  7  X    0.081339  -0.135256  -0.042875  -0.003727   0.105726
   34  C  7  Y    0.117166  -0.054891  -0.043081   0.015135  -0.001875
   35  C  7  Z    0.234858  -0.029391  -0.073871  -0.177787   0.146230
   36  C  8  S    0.091528  -0.030933   0.108516   0.006102  -0.032931
   37  C  8  S   -0.552583   0.181334  -0.696682  -0.043470   0.220945
   38  C  8  X    0.029505   0.000690   0.077810   0.083080  -0.050420
   39  C  8  Y    0.007182   0.152476  -0.026259  -0.091736  -0.021459
   40  C  8  Z    0.172789   0.201103   0.019321  -0.017029  -0.059343
   41  C  9  S    0.002519   0.035221  -0.036999  -0.046858  -0.023037
   42  C  9  S   -0.027588  -0.224696   0.220152   0.283360   0.136859
   43  C  9  X    0.305534  -0.047616   0.275330  -0.029271  -0.200201
   44  C  9  Y   -0.173217  -0.009658  -0.327718  -0.018714   0.187720
   45  C  9  Z    0.062110   0.141504  -0.059017   0.058919   0.082442
   46  O 10  S   -0.017169  -0.021041   0.005270   0.010530   0.008715
   47  O 10  S    0.122559   0.143929  -0.033196  -0.070503  -0.059245
   48  O 10  X    0.000083   0.110699  -0.094982  -0.030999   0.024200
   49  O 10  Y    0.053029   0.008930   0.105646   0.002448  -0.064348
[...]
   29  C  6  Y   -0.513036  -0.027919  -0.022502   0.199530   0.032233
   30  C  6  Z   -0.152528   0.610949  -0.176267   0.069369  -0.006464
   31  C  7  S    0.038527  -0.072998  -0.014166  -0.006827   0.016188
   32  C  7  S   -0.219145   0.429948   0.096232   0.030920  -0.128743
   33  C  7  X    0.272477   0.028649   0.313853  -0.070605  -0.141553
   34  C  7  Y   -0.267172   0.007645  -0.360830   0.080902   0.114552
   35  C  7  Z   -0.187387   0.318236  -0.114894   0.043523  -0.052809
   36  C  8  S   -0.023712  -0.029769   0.041874   0.021949   0.117025
   37  C  8  S    0.148927   0.194476  -0.227272  -0.135981  -0.721231
   38  C  8  X    0.178558  -0.025531   0.410765  -0.037646   0.070842
   39  C  8  Y   -0.212395   0.059481  -0.379855   0.055488   0.002147
   40  C  8  Z   -0.036398  -0.033742  -0.040226   0.086944   0.414969
   41  C  9  S    0.004484   0.032599  -0.152555  -0.053563  -0.091774
   42  C  9  S   -0.026919  -0.191790   0.904058   0.316802   0.533842
   43  C  9  X    0.154031  -0.079877   0.147520  -0.095161   0.258303
   44  C  9  Y   -0.251478  -0.026405  -0.072619   0.198981   0.115040
   45  C  9  Z   -0.078591  -0.053624   0.212005   0.148829   0.282117
   46  O 10  S   -0.001036  -0.002821   0.027348   0.009224  -0.003872
   47  O 10  S    0.006410   0.014202  -0.168649  -0.056862   0.042410
   48  O 10  X   -0.043377   0.027895  -0.129729   0.001557   0.000817
   49  O 10  Y    0.079168   0.012350   0.011865  -0.065197  -0.030725
   50  O 10  Z    0.030333   0.007501  -0.209891  -0.092184   0.061548
   51  H 11  S    0.171787  -0.468739  -0.027549   0.263698  -0.260429
   52  H 12  S   -0.353558   0.180922  -0.034494  -0.112094   0.095082
   53  H 13  S    0.187171  -0.294848  -0.154114   0.545683  -0.214349
   54  H 14  S   -0.208937  -0.063739   0.149683  -0.401545  -0.047869
   55  H 15  S    0.243449  -0.001437  -0.167590   0.511522  -0.006905
   56  H 16  S    0.361561  -0.069461  -0.093461  -0.288091   0.655024
   57  H 17  S    0.253618  -0.383382  -0.321475  -0.442422   0.131979
   58  H 18  S    0.005219  -0.545626  -0.231451  -0.127565  -0.035493
   59  H 19  S   -0.228667  -0.353187  -0.497629   0.082482   0.220772
   60  H 20  S   -0.339814  -0.075838  -0.274562   0.197658   0.674313

                     46         47         48         49         50
                    0.6626     0.6796     0.6804     0.7039     0.7279
                     A          A          A          A          A   
    1  C  1  S    0.046434  -0.073702   0.054378  -0.067469  -0.124230
    2  C  1  S   -0.249161   0.431186  -0.326654   0.409571   0.780174
    3  C  1  X    0.168751   0.564552   0.106121  -0.102617  -0.240209
    4  C  1  Y   -0.369306   0.492627   0.274518  -0.083015  -0.211375
    5  C  1  Z    0.425412  -0.328179   0.396940  -0.018029   0.224515
    6  C  2  S   -0.092528  -0.044382   0.000033   0.086106   0.097380
    7  C  2  S    0.578667   0.279514  -0.017320  -0.506171  -0.629418
    8  C  2  X    0.146448   0.021665   0.236123   0.024062  -0.153722
    9  C  2  Y    0.250356  -0.104308  -0.021774   0.015168  -0.072210
   10  C  2  Z    0.109662   0.211883   0.009112   0.019619  -0.276698
   11  C  3  S   -0.002618   0.008911  -0.043637  -0.197523   0.041336
   12  C  3  S    0.031848  -0.047794   0.285590   1.267567  -0.289074
   13  C  3  X   -0.133231  -0.009439   0.232846  -0.228909   0.139865
   14  C  3  Y   -0.080100   0.072783  -0.155498  -0.196808   0.097711
   15  C  3  Z   -0.021375  -0.070121  -0.116592  -0.324027   0.236837
   16  C  4  S    0.000063  -0.011157  -0.066593   0.012002  -0.002607
   17  C  4  S   -0.002873   0.067118   0.398672  -0.072726   0.012959
   18  C  4  X   -0.154471   0.014855   0.049172   0.013667   0.101546
   19  C  4  Y    0.182573   0.201201  -0.100521   0.024466  -0.051728
   20  C  4  Z   -0.077391  -0.142564   0.071597  -0.010483   0.094029
   21  C  5  S    0.000608  -0.006033   0.155514  -0.026497   0.033657
   22  C  5  S    0.021417   0.052815  -0.974509   0.165031  -0.224407
   23  C  5  X   -0.033534  -0.259211  -0.063212  -0.023341  -0.078978
   24  C  5  Y    0.160144  -0.032067   0.031865  -0.017025  -0.062139
   25  C  5  Z   -0.095983   0.050700  -0.281986   0.066496   0.002027
   26  C  6  S   -0.113930   0.041037  -0.104375   0.009634  -0.091230
   27  C  6  S    0.661222  -0.228001   0.618177  -0.052459   0.577290
   28  C  6  X   -0.170300   0.583792  -0.179596   0.144712   0.471961
   29  C  6  Y   -0.362911   0.412843   0.327647  -0.019613   0.160172
   30  C  6  Z   -0.161675  -0.592865  -0.051303  -0.018572   0.153700
   31  C  7  S    0.137860   0.053132  -0.014928   0.015557   0.065447
   32  C  7  S   -0.861769  -0.321637   0.110208  -0.105391  -0.429157
   33  C  7  X   -0.051624  -0.147778   0.013044  -0.026447  -0.089017
   34  C  7  Y    0.104533  -0.176661  -0.091333  -0.014660  -0.050625
   35  C  7  Z   -0.288989  -0.077011  -0.091319   0.012377   0.003483
   36  C  8  S   -0.063675  -0.041955   0.018009  -0.011490  -0.031376
   37  C  8  S    0.374884   0.254735  -0.113891   0.067850   0.197399
   38  C  8  X   -0.104538   0.087296   0.131382  -0.023852   0.005528
   39  C  8  Y    0.045118   0.053731  -0.142721   0.040990   0.089263
   40  C  8  Z    0.069004  -0.116318  -0.149626   0.047165   0.147949
   41  C  9  S    0.014947   0.004663   0.002776   0.003943   0.029004
   42  C  9  S   -0.085161  -0.023040  -0.014190  -0.028640  -0.181020
   43  C  9  X   -0.160068  -0.158901   0.142690  -0.038444   0.000628
   44  C  9  Y    0.209997   0.006788  -0.242880   0.047364   0.076182
   45  C  9  Z   -0.003422   0.023602  -0.079426   0.046666   0.080470
   46  O 10  S    0.001165   0.004003  -0.000250  -0.003384  -0.015637
   47  O 10  S   -0.010751  -0.029932   0.000658   0.023212   0.107709
   48  O 10  X    0.029953   0.026565  -0.047023   0.031139   0.085334
   49  O 10  Y   -0.070910   0.000403   0.076038  -0.011030  -0.007025
   50  O 10  Z   -0.028013  -0.064577   0.020314   0.014198   0.103831
   51  H 11  S   -0.206896  -0.125458  -0.296068  -0.135426  -0.415059
   52  H 12  S   -0.159560   0.059010   0.478555  -0.219138  -0.451680
   53  H 13  S   -0.445551  -0.202973   0.107575   0.279432   0.449988
   54  H 14  S   -0.009123   0.027057  -0.406271  -0.853837   0.298549
   55  H 15  S   -0.112186   0.004974   0.106920  -0.816820   0.238443
   56  H 16  S   -0.250773  -0.221725  -0.102279   0.025943   0.101991
   57  H 17  S   -0.045615  -0.054944   0.638736  -0.114201   0.143556
   58  H 18  S   -0.004062  -0.125382  -0.234355  -0.047743  -0.671408
   59  H 19  S    0.617962   0.182186  -0.097457   0.064505   0.258666
   60  H 20  S   -0.107174  -0.218135  -0.173337   0.028409   0.042735

                     51         52         53         54         55
                    0.7444     0.7805     0.7849     0.8861     0.8953
                     A          A          A          A          A   
    1  C  1  S    0.062360  -0.129248   0.020973  -0.012685  -0.022776
    2  C  1  S   -0.408208   0.832290  -0.123339   0.085816   0.147479
    3  C  1  X   -0.320304   0.270226   0.191043   0.059816   0.011721
    4  C  1  Y    0.529013  -0.108127  -0.409992  -0.112915   0.050637
    5  C  1  Z    0.115143   0.488010  -0.323293  -0.026679   0.070506
    6  C  2  S    0.058630   0.025431  -0.071543  -0.016491  -0.004233
    7  C  2  S   -0.391563  -0.169051   0.480747   0.117740   0.028146
    8  C  2  X    0.001629  -0.000207   0.016360  -0.057309  -0.131995
    9  C  2  Y   -0.091290   0.012138   0.050807   0.026739   0.115460
   10  C  2  Z   -0.007735  -0.052171   0.015275  -0.003628   0.115490
   11  C  3  S   -0.013247   0.009137   0.009387   0.007344   0.000620
   12  C  3  S    0.085193  -0.064285  -0.061295  -0.052738  -0.000390
   13  C  3  X    0.219334   0.211523  -0.267983   0.016815   0.240108
   14  C  3  Y    0.033742  -0.036427  -0.049326  -0.065883  -0.101477
   15  C  3  Z    0.056505   0.057171  -0.126398  -0.071538  -0.060179
   16  C  4  S    0.115613   0.053707   0.063992  -0.003500  -0.032769
   17  C  4  S   -0.752947  -0.359983  -0.432500   0.029354   0.235159
   18  C  4  X    0.076026  -0.029103   0.166799   0.314509   0.035661
   19  C  4  Y   -0.049789   0.079076  -0.044120  -0.614452  -0.100402
   20  C  4  Z    0.095252  -0.025573   0.321954   0.013884   0.134443
   21  C  5  S   -0.060227  -0.017575   0.072178  -0.005897   0.022301
   22  C  5  S    0.381196   0.117028  -0.488291   0.036876  -0.155260
   23  C  5  X   -0.033874  -0.040952  -0.107817  -0.178873  -0.012607
   24  C  5  Y    0.004039  -0.001599   0.010331   0.589784   0.313197
   25  C  5  Z   -0.136816  -0.201051  -0.259409   0.342125   0.326826
   26  C  6  S   -0.010462   0.092797  -0.030813  -0.001533  -0.016676
   27  C  6  S    0.056504  -0.582103   0.198872   0.010968   0.103286
   28  C  6  X    0.060148  -0.443099  -0.100661  -0.170901  -0.176012
   29  C  6  Y   -0.259119   0.050875   0.505036   0.253499  -0.033142
   30  C  6  Z   -0.013225  -0.220930   0.219283   0.024299  -0.412856
   31  C  7  S    0.066742  -0.067497  -0.044235   0.009072   0.021499
   32  C  7  S   -0.422642   0.452062   0.300865  -0.058467  -0.151870
   33  C  7  X    0.088360   0.010303   0.106727  -0.416483   0.470943
   34  C  7  Y    0.039163  -0.001156  -0.065715   0.395565  -0.362404
   35  C  7  Z    0.117551   0.075092   0.299493   0.021793   0.160940
   36  C  8  S   -0.116607  -0.012630  -0.077429  -0.003110  -0.035761
   37  C  8  S    0.762876   0.086093   0.520188   0.017363   0.257252
   38  C  8  X   -0.007488  -0.053698  -0.140183   0.353738  -0.131866
   39  C  8  Y   -0.095754  -0.031721   0.046770  -0.433505   0.124165
   40  C  8  Z   -0.099111  -0.311903  -0.213306  -0.303911   0.255519
   41  C  9  S   -0.005005  -0.030707   0.015417   0.013736   0.110884
   42  C  9  S    0.031309   0.196674  -0.099161  -0.090229  -0.730953
   43  C  9  X   -0.280519  -0.229048  -0.273085   0.267387   0.366521
   44  C  9  Y    0.451715   0.177748   0.474700  -0.330614   0.142511
   45  C  9  Z    0.134002  -0.034115   0.184096  -0.042323   0.549822
   46  O 10  S    0.001403   0.020981  -0.008846  -0.010177  -0.084406
   47  O 10  S   -0.009362  -0.147363   0.062055   0.073496   0.611234
   48  O 10  X    0.074753  -0.053048   0.120571  -0.013192   0.376390
   49  O 10  Y   -0.134031  -0.067492  -0.117990   0.096808   0.048467
   50  O 10  Z   -0.047941  -0.166912   0.023031   0.096626   0.568166
   51  H 11  S    0.029344  -0.795282   0.363679  -0.002037  -0.113335
   52  H 12  S    0.701999  -0.403650  -0.362833  -0.130798   0.002139
   53  H 13  S    0.222042   0.121827  -0.243305  -0.067607  -0.161273
   54  H 14  S   -0.081831  -0.015590   0.022275  -0.050639  -0.143544
   55  H 15  S    0.145716   0.214821  -0.191515   0.041500   0.199112
   56  H 16  S    0.449415   0.082488   0.369427   0.506981   0.024080
   57  H 17  S   -0.119598   0.042542   0.330338  -0.545905  -0.277511
   58  H 18  S    0.009922   0.646907  -0.266459   0.023939   0.239356
   59  H 19  S    0.124321  -0.213005  -0.262555   0.456056  -0.408407
   60  H 20  S   -0.468201  -0.228056  -0.287699  -0.478354   0.145682

                     56         57         58         59         60
                    0.9333     0.9458     1.0466     1.0752     1.1299
                     A          A          A          A          A   
    1  C  1  S   -0.001615  -0.051658   0.017022   0.001769  -0.004784
    2  C  1  S    0.012927   0.335553  -0.114576  -0.010887   0.030961
    3  C  1  X   -0.144355  -0.351381   0.108319   0.067067   0.057358
    4  C  1  Y   -0.022497  -0.079788  -0.207878  -0.114292   0.032406
    5  C  1  Z   -0.025810  -0.210411  -0.213936  -0.079350   0.037997
    6  C  2  S   -0.005321  -0.012656   0.102505   0.023475  -0.006085
    7  C  2  S    0.044925   0.112026  -0.837874  -0.194050   0.045236
    8  C  2  X   -0.212419  -0.691677   0.645996   0.175532   0.005086
    9  C  2  Y    0.134892   0.418424   0.480209   0.122229  -0.029355
   10  C  2  Z    0.095548   0.314963   0.828121   0.220269  -0.036177
   11  C  3  S    0.001653   0.004596  -0.109747  -0.028069   0.003651
   12  C  3  S   -0.011097  -0.029710   0.885643   0.228442  -0.029827
   13  C  3  X    0.222584   0.678107   0.598212   0.146049  -0.031709
   14  C  3  Y   -0.143898  -0.430594   0.455368   0.116663  -0.012676
   15  C  3  Z   -0.110405  -0.330697   0.799158   0.199938  -0.024009
   16  C  4  S    0.061451  -0.013388  -0.016483   0.055855  -0.062100
   17  C  4  S   -0.475431   0.106583   0.138978  -0.477607   0.502190
   18  C  4  X    0.088920  -0.038641   0.105466  -0.273312   0.393352
   19  C  4  Y   -0.422414   0.184309  -0.014137  -0.061569  -0.350901
   20  C  4  Z   -0.511446   0.143804   0.230446  -0.775443   0.486599
   21  C  5  S   -0.054935   0.010428   0.021241  -0.058629   0.065039
   22  C  5  S    0.426915  -0.090892  -0.177410   0.498145  -0.529093
   23  C  5  X   -0.375391   0.142120   0.063636  -0.319766   0.105685
   24  C  5  Y    0.395700  -0.273579  -0.016934   0.151095   0.180754
   25  C  5  Z   -0.344074   0.033087   0.210652  -0.731545   0.556084
   26  C  6  S   -0.080637   0.029359  -0.001745   0.001287  -0.010779
   27  C  6  S    0.530051  -0.188800   0.009822  -0.008779   0.066400
   28  C  6  X    0.115450   0.122825   0.023444  -0.181772  -0.123233
   29  C  6  Y    0.069993  -0.023448  -0.002310   0.300134   0.014117
   30  C  6  Z   -0.088362   0.175135   0.006576   0.098525  -0.275074
   31  C  7  S   -0.050304   0.014668  -0.017965   0.057801   0.065499
   32  C  7  S    0.394680  -0.119545   0.149030  -0.495011  -0.535844
   33  C  7  X    0.102447  -0.114626  -0.060182   0.198180   0.348642
   34  C  7  Y   -0.325498   0.153065   0.015421   0.023310  -0.196060
   35  C  7  Z   -0.565979   0.165962  -0.181543   0.793949   0.455382
   36  C  8  S    0.060503  -0.014774   0.013262  -0.056091  -0.062886
   37  C  8  S   -0.469599   0.114697  -0.112754   0.480665   0.510281
   38  C  8  X   -0.463414   0.147525  -0.099155   0.382119   0.011947
   39  C  8  Y    0.435611  -0.119346   0.028483  -0.104836   0.245487
   40  C  8  Z   -0.218243   0.075642  -0.187785   0.725817   0.686684
   41  C  9  S    0.034294  -0.037017  -0.001563  -0.000192  -0.029899
   42  C  9  S   -0.232741   0.246071   0.012013   0.001712   0.209943
   43  C  9  X   -0.260967  -0.039798  -0.073895   0.192915  -0.435180
   44  C  9  Y   -0.061662   0.003600   0.078624  -0.300959  -0.054792
   45  C  9  Z   -0.337831  -0.039873  -0.015074  -0.098510  -0.739867
   46  O 10  S    0.023320   0.014359   0.003645   0.000389   0.065797
   47  O 10  S   -0.177563  -0.103367  -0.027751  -0.003100  -0.508335
   48  O 10  X   -0.094698  -0.062254  -0.008323  -0.034620  -0.296640
   49  O 10  Y   -0.013812  -0.014705  -0.017187   0.049908  -0.062552
   50  O 10  Z   -0.156194  -0.098257  -0.027072   0.013095  -0.419078
   51  H 11  S    0.056658   0.109587   0.166770   0.053287  -0.043598
   52  H 12  S    0.015646  -0.138668  -0.139601  -0.089692   0.006551
   53  H 13  S   -0.189526  -0.597930  -0.121078  -0.036526   0.016172
   54  H 14  S   -0.184079  -0.549644   0.116815   0.029026  -0.002072
   55  H 15  S    0.187177   0.562093   0.081489   0.015368  -0.010263
   56  H 16  S    0.338900  -0.129922   0.047292  -0.069008   0.241078
   57  H 17  S   -0.235920   0.183519  -0.022580   0.055805  -0.141151
   58  H 18  S   -0.210310  -0.063444  -0.020184  -0.005240   0.117789
   59  H 19  S   -0.246028   0.150579   0.020126  -0.051231  -0.142082
   60  H 20  S    0.360761  -0.091188  -0.021955   0.069287   0.242858

 THE NUCLEAR REPULSION AT THE IRC POINT IS      494.9191784284

 * * * IRC RESTART INFORMATION * * *
 COORDINATES FOR $DATA AND ENTIRE $IRC GROUP FOLLOW

 COORDINATES OF SYMMETRY UNIQUE ATOMS (ANGS)
   ATOM   CHARGE       X              Y              Z
 ------------------------------------------------------------
 C           6.0   5.3458668926  -1.7087993023   2.0414104931
 C           6.0   3.8419227871  -1.4960826943   1.8660019612
 C           6.0   3.1029856991  -2.0293049641   0.9263670199
 C           6.0   4.9831338175   0.4833899206  -0.6361909573
 C           6.0   5.4656238517   0.4047209925   0.5832611303
 C           6.0   6.2384820236  -0.8077161632   1.0952474029
 C           6.0   6.7849841264  -1.6426008491  -0.0589888232
 C           6.0   6.3159639596  -1.5773563992  -1.2831922165
 C           6.0   5.1989754379  -0.6247499835  -1.6435230802
 O           8.0   4.5219727355  -0.7493566987  -2.6576425949
 H           1.0   5.6089248447  -1.4906260235   3.0739303291
 H           1.0   5.5952949444  -2.7523808362   1.8600657363
 H           1.0   3.3874132142  -0.8196329123   2.5814413317
 H           1.0   3.5052076993  -2.7038985982   0.1826582916
 H           1.0   2.0451666677  -1.8197729401   0.8477144585
 H           1.0   4.3995149195   1.3335143534  -0.9661118049
 H           1.0   5.2915899038   1.1972384006   1.3029909078
 H           1.0   7.0840673596  -0.4568038799   1.6893915163
 H           1.0   7.5735075210  -2.3411674574   0.1997783714
 H           1.0   6.6929275688  -2.2104688613  -2.0763067181
 $IRC   PACE=GS2        STRIDE= 0.10000   NPOINT=??
        STOTAL=  9.998173   NEXTPT= 101
        NPRT= 0   NPUN= 0   SADDLE=.FALSE.
        GA(   1)= 5.050691795E-05,-1.001423930E-03,-7.591912725E-04
        GA(   4)= 1.835789809E-06,-3.172054913E-04, 2.260147801E-04
        GA(   7)=-3.226610581E-04, 2.476795706E-03,-1.064435879E-03
        GA(  10)=-3.863841648E-04,-3.850385428E-04, 2.047840627E-04
        GA(  13)=-2.889717018E-04,-1.419126739E-04, 1.717902549E-04
        GA(  16)= 4.960208100E-05, 2.175007530E-05, 7.813754875E-05
        GA(  19)= 9.889602738E-04, 7.814547293E-04,-3.467365295E-05
        GA(  22)= 8.312678285E-04, 5.082924470E-04, 2.870189705E-05
        GA(  25)=-1.366638990E-04,-4.744189289E-04, 3.519272953E-04
        GA(  28)=-8.777336385E-04,-1.766491580E-03, 1.096429406E-03
        GA(  31)= 4.459253347E-05,-2.257312608E-04,-7.864445261E-05
        GA(  34)=-4.411114256E-05,-5.627562379E-05,-1.930262984E-04
        GA(  37)= 2.048622280E-05,-1.826274789E-04, 2.050015517E-04
        GA(  40)=-4.405325664E-05, 3.658964656E-04,-2.774593575E-04
        GA(  43)=-1.280828477E-05, 2.325407508E-04,-1.152056881E-05
        GA(  46)=-6.285600945E-05,-3.655273013E-05, 1.001963890E-05
        GA(  49)=-3.516648824E-05,-2.977008183E-05, 7.089772759E-06
        GA(  52)=-2.932235159E-05, 1.975699716E-05, 6.566775132E-05
        GA(  55)= 1.411257692E-04, 1.290042379E-04,-1.407703730E-05
        GA(  58)= 1.123546485E-04, 8.195691911E-05,-1.253542843E-05
 $END   
 A GS2 RESTART ALSO REQUIRES THE UPDATED $HESS GROUP FROM THE PUNCH FILE
 ......DONE WITH THIS PORTION OF THE IRC......
 STEP CPU TIME =     0.01 TOTAL CPU TIME =        218.0 (      3.6 MIN)
 TOTAL WALL CLOCK TIME=        223.8 SECONDS, CPU UTILIZATION IS    97.42%
               580000  WORDS OF DYNAMIC MEMORY USED
 EXECUTION OF GAMESS TERMINATED NORMALLY Fri Nov  5 18:41:54 2021
 DDI: 263640 bytes (0.3 MB / 0 MWords) used by master data server.

 ----------------------------------------
 CPU timing information for all processes
 ========================================
 0: 200.06 + 18.07 = 218.14
 ----------------------------------------
 ddikick.x: exited gracefully.
----- accounting info -----
Files used on the master node chemcompute-node-0.novalocal were:
-rw-r--r--. 1 chemcomp chemcomp    60607 Nov  5 18:38 /scratch/301310/336319.F05
-rw-rw-r--. 1 chemcomp chemcomp 17281536 Nov  5 18:41 /scratch/301310/336319.F08
-rw-rw-r--. 1 chemcomp chemcomp 52428800 Nov  5 18:41 /scratch/301310/336319.F10
Fri Nov  5 18:41:57 UTC 2021
0.148u 0.113s 3:47.43 0.1%	0+0k 120+328io 0pf+0w
Finishing Up...
Looking for IR data...
Looking for Raman data...
vibramans not found
Looking for thermodynamics data...
Looking for UV-Vis data...
301310
