----- GAMESS execution script 'rungms' -----
This job is running on host chemcompute-node-0.novalocal
under operating system Linux at Thu Nov 4 23:05:54 UTC 2021
SLURM has assigned the following compute nodes to this run:
chemcompute-node-0
Available scratch disk space (Kbyte units) at beginning of the job is
Filesystem     1K-blocks     Used Available Use% Mounted on
/dev/sda1       62903276 16965296  45937980  27% /
GAMESS temporary binary files will be written to /scratch/300978
GAMESS supplementary output files will be written to /data/slurm/335920
Copying input file 335920.inp to your run's scratch directory...
The generated host list is
chemcompute-node-0.novalocal

 Distributed Data Interface kickoff program.
 Initiating 1 compute processes on 1 nodes to run the following command:
 /data/gamess-2019R1-ddi/gamess.00.x 335920 

          ******************************************************
          *         GAMESS VERSION = 30 JUN 2019 (R1)          *
          *             FROM IOWA STATE UNIVERSITY             *
          * M.W.SCHMIDT, K.K.BALDRIDGE, J.A.BOATZ, S.T.ELBERT, *
          *   M.S.GORDON, J.H.JENSEN, S.KOSEKI, N.MATSUNAGA,   *
          *          K.A.NGUYEN, S.J.SU, T.L.WINDUS,           *
          *       TOGETHER WITH M.DUPUIS, J.A.MONTGOMERY       *
          *         J.COMPUT.CHEM.  14, 1347-1363(1993)        *
          **************** 64 BIT LINUX VERSION ****************

  SINCE 1993, STUDENTS AND POSTDOCS WORKING AT IOWA STATE UNIVERSITY
  AND ALSO IN THEIR VARIOUS JOBS AFTER LEAVING ISU HAVE MADE IMPORTANT
  CONTRIBUTIONS TO THE CODE:
     IVANA ADAMOVIC, CHRISTINE AIKENS, YURI ALEXEEV, POOJA ARORA,
     ANDREY ASADCHEV, ROB BELL, PRADIPTA BANDYOPADHYAY, JONATHAN BENTZ,
     COLLEEN BERTONI, BRETT BODE, KURT BRORSEN, CALEB CARLIN, GALINA CHABAN,
     WEI CHEN, CHEOL HO CHOI, PAUL DAY, ALBERT DEFUSCO, NUWAN DESILVA,
     TIM DUDLEY, DMITRI FEDOROV, ALEX FINDLATER, GRAHAM FLETCHER, 
     MARK FREITAG, KURT GLAESEMANN, ANASTASIA GUNINA,
     DAN KEMP, GRANT MERRILL, NORIYUKI MINEZAWA, JONATHAN MULLIN,
     TAKESHI NAGATA, SEAN NEDD, HEATHER NETZLOFF, BOSILJKA NJEGIC, RYAN OLSON,
     MIKE PAK, BUU PHAM,
     SPENCER PRUITT, LUKE ROSKOP, JIM SHOEMAKER, LYUDMILA SLIPCHENKO,
     TONY SMITH, SAROM SOK LEANG, JIE SONG, TETSUYA TAKETSUGU, SIMON WEBB,
     PENG XU, SOOHAENG YOO, FEDERICO ZAHARIEV

  ADDITIONAL CODE HAS BEEN PROVIDED BY COLLABORATORS IN OTHER GROUPS:
     IOWA STATE UNIVERSITY:
          JOE IVANIC, AARON WEST, LAIMUTIS BYTAUTAS, KLAUS RUEDENBERG
     UNIVERSITY OF TOKYO: KIMIHIKO HIRAO, TAKAHITO NAKAJIMA,
          TAKAO TSUNEDA, MUNEAKI KAMIYA, SUSUMU YANAGISAWA,
          KIYOSHI YAGI, MAHITO CHIBA, SEIKEN TOKURA, NAOAKI KAWAKAMI
     UNIVERSITY OF AARHUS: FRANK JENSEN
     UNIVERSITY OF IOWA: VISVALDAS KAIRYS, HUI LI
     NATIONAL INST. OF STANDARDS AND TECHNOLOGY: WALT STEVENS, DAVID GARMER
     UNIVERSITY OF PISA: BENEDETTA MENNUCCI, JACOPO TOMASI
     UNIVERSITY OF MEMPHIS: HENRY KURTZ, PRAKASHAN KORAMBATH
     UNIVERSITY OF ALBERTA: TOBY ZENG, MARIUSZ KLOBUKOWSKI
     UNIVERSITY OF NEW ENGLAND: MARK SPACKMAN
     MIE UNIVERSITY: HIROAKI UMEDA
     NAT. INST. OF ADVANCED INDUSTRIAL SCIENCE AND TECHNOLOGY: KAZUO KITAURA
     MICHIGAN STATE UNIVERSITY:
          KAROL KOWALSKI, MARTA WLOCH, JEFFREY GOUR, JESSE LUTZ,
          WEI LI, JUN SHEN, J. EMILIANO DEUSTUA, PIOTR PIECUCH
     UNIVERSITY OF MINNESOTA:
          YINAN SHU
     UNIVERSITY OF SILESIA: MONIKA MUSIAL, STANISLAW KUCHARSKI
     FACULTES UNIVERSITAIRES NOTRE-DAME DE LA PAIX:
          OLIVIER QUINET, BENOIT CHAMPAGNE
     UNIVERSITY OF CALIFORNIA - SANTA BARBARA: BERNARD KIRTMAN
     INSTITUTE FOR MOLECULAR SCIENCE:
          KAZUYA ISHIMURA, MICHIO KATOUDA, AND SHIGERU NAGASE
     UNIVERSITY OF NOTRE DAME: ANNA POMOGAEVA, DAN CHIPMAN
     KYUSHU UNIVERSITY:
          HARUYUKI NAKANO,
          FENG LONG GU, JACEK KORCHOWIEC, MARCIN MAKOWSKI, AND YURIKO AOKI,
          HIROTOSHI MORI AND EISAKU MIYOSHI
     PENNSYLVANIA STATE UNIVERSITY:
          TZVETELIN IORDANOV, CHET SWALINA, JONATHAN SKONE,
          SHARON HAMMES-SCHIFFER
     WASEDA UNIVERSITY:
          MASATO KOBAYASHI, TOMOKO AKAMA, TSUGUKI TOUMA,
          TAKESHI YOSHIKAWA, YASUHIRO IKABATA, JUNJI SEINO,
          YUYA NAKAJIMA, HIROMI NAKAI
     NANJING UNIVERSITY: SHUHUA LI
     UNIVERSITY OF NEBRASKA:
          PEIFENG SU, DEJUN SI, NANDUN THELLAMUREGE, YALI WANG, HUI LI
     UNIVERSITY OF ZURICH: ROBERTO PEVERATI, KIM BALDRIDGE
     N. COPERNICUS UNIVERSITY AND JACKSON STATE UNIVERSITY:
          MARIA BARYSZ
     UNIVERSITY OF COPENHAGEN: Jimmy Kromann, CASPER STEINMANN
     TOKYO INSTITUTE OF TECHNOLOGY: HIROYA NAKATA
     NAGOYA UNIVERSITY: YOSHIO NISHIMOTO, STEPHAN IRLE
     MOSCOW STATE UNIVERSITY: VLADIMIR MIRONOV
     A.N.NESMEYANOV INSTITUTE OF ORGANOELEMENT COMPOUNDS OF RUSSIAN ACADEMY OF SCIENCES:
          IGOR S. GERASIMOV

 EXECUTION OF GAMESS BEGUN Thu Nov  4 23:05:54 2021

            ECHO OF THE FIRST FEW INPUT CARDS -
 INPUT CARD>!File created by the GAMESS Input Deck Generator Plugin for Avogadro            
 INPUT CARD> $BASIS GBASIS=STO NGAUSS=3 $END                                                
 INPUT CARD> $CONTRL SCFTYP=RHF RUNTYP=SADPOINT $END                                        
 INPUT CARD> $STATPT hssend=.t. OPTTOL=0.0005 NSTEP=50 $END                                 
 INPUT CARD> $STATPT HESS=calc ihrep=5 $END                                                 
 INPUT CARD> $FORCE NVIB=2 $END                                                             
 INPUT CARD> $ZMAT DLC=.t. auto=.t. nonvdw(1)=1,6,3,4,4,5,5,6,1,2,2,3 $END                  
 INPUT CARD>!$ZMAT IFZMAT(1)=1,1,6,1,4,3 fvalue(1)=2.0,2.0 $END                             
 INPUT CARD>                                                                                
 INPUT CARD> $DATA                                                                          
 INPUT CARD>Title                                                                           
 INPUT CARD>C1                                                                              
 INPUT CARD>C     6.0     5.23117161    -1.94577253     2.00718808                          
 INPUT CARD>C     6.0     3.91168046    -1.51750755     1.82160795                          
 INPUT CARD>C     6.0     3.41101623    -1.36038744     0.52401531                          
 INPUT CARD>C     6.0     4.55469942     0.03175749    -0.34427109                          
 INPUT CARD>C     6.0     5.50022268     0.38439658     0.62635380                          
 INPUT CARD>C     6.0     6.38196135    -0.62194139     1.04637921                          
 INPUT CARD>C     6.0     6.91634464    -1.50632262    -0.05034633                          
 INPUT CARD>C     6.0     6.32762575    -1.58825457    -1.22640121                          
 INPUT CARD>C     6.0     5.06761885    -0.80784076    -1.52247405                          
 INPUT CARD>O     8.0     4.49816322    -0.84333313    -2.60517669                          
 INPUT CARD>H     1.0     5.62548161    -1.94192123     3.01805902                          
 INPUT CARD>H     1.0     5.56942844    -2.79737759     1.42967844                          
 INPUT CARD>H     1.0     3.48099875    -0.89258564     2.59540033                          
 INPUT CARD>H     1.0     3.61767411    -2.14881134    -0.18997373                          
 INPUT CARD>H     1.0     2.41660714    -0.94274205     0.40836269                          
 INPUT CARD>H     1.0     3.82460260     0.78030872    -0.63823509                          
 INPUT CARD>H     1.0     5.28671312     1.20938218     1.29498172                          
 INPUT CARD>H     1.0     7.10530329    -0.37523893     1.81748915                          
 INPUT CARD>H     1.0     7.81338596    -2.07482100     0.16968566                          
 INPUT CARD>H     1.0     6.72381973    -2.19724274    -2.02831125                          
 INPUT CARD> $END                                                                           
    1000000 WORDS OF MEMORY AVAILABLE

     BASIS OPTIONS
     -------------
     GBASIS=STO          IGAUSS=       3      POLAR=NONE    
     NDFUNC=       0     NFFUNC=       0     DIFFSP=       F
     NPFUNC=       0      DIFFS=       F     BASNAM=        


     RUN TITLE
     ---------
 Title                                                                           

 THE POINT GROUP OF THE MOLECULE IS C1      
 THE ORDER OF THE PRINCIPAL AXIS IS     0

 ATOM      ATOMIC                      COORDINATES (BOHR)
           CHARGE         X                   Y                   Z
 C           6.0     9.8854809376       -3.6769769161        3.7930354770
 C           6.0     7.3920042209       -2.8676734538        3.4423398826
 C           6.0     6.4458860144       -2.5707594987        0.9902453493
 C           6.0     8.6071338602        0.0600129542       -0.6505780256
 C           6.0    10.3939137367        0.7264042068        1.1836370534
 C           6.0    12.0601582157       -1.1752988075        1.9773699861
 C           6.0    13.0699962062       -2.8465370009       -0.0951407682
 C           6.0    11.9574788204       -3.0013659360       -2.3175622379
 C           6.0     9.5764110367       -1.5265976781       -2.8770587779
 O           8.0     8.5002959338       -1.5936685321       -4.9230700937
 H           1.0    10.6306187919       -3.6696990144        5.7033045626
 H           1.0    10.5246936598       -5.2862771293        2.7017005022
 H           1.0     6.5781338011       -1.6867422802        4.9045954521
 H           1.0     6.8364127808       -4.0606646319       -0.3589982946
 H           1.0     4.5667253146       -1.7815241516        0.7716935877
 H           1.0     7.2274509259        1.4745696666       -1.2060894358
 H           1.0     9.9904391725        2.2854009346        2.4471606099
 H           1.0    13.4270762778       -0.7090987576        3.4345564792
 H           1.0    14.7651585007       -3.9208431636        0.3206594014
 H           1.0    12.7061768805       -4.1521867071       -3.8329524803

          INTERNUCLEAR DISTANCES (ANGS.)
          ------------------------------

                1 C          2 C          3 C          4 C          5 C     

   1 C       0.0000000    1.3996099 *  2.4198022 *  3.1460451    2.7219074 *
   2 C       1.3996099 *  0.0000000    1.3996778 *  2.7394758 *  2.7512430 *
   3 C       2.4198022 *  1.3996778 *  0.0000000    2.0000000 *  2.7238811 *
   4 C       3.1460451    2.7394758 *  2.0000000 *  0.0000000    1.4001719 *
   5 C       2.7219074 *  2.7512430 *  2.7238811 *  1.4001719 *  0.0000000  
   6 C       1.9999999 *  2.7395814 *  3.1055888    2.3874917 *  1.4023554 *
   7 C       2.6956209 *  3.5401052    3.5550690    2.8336285 *  2.4572634 *
   8 C       3.4330934    3.8900073    3.4091777    2.5584879 *  2.8299557 *
   9 C       3.7121628    3.6086985    2.6903083 *  1.5349833 *  2.4952028 *
  10 O       4.7986022    4.5160708    3.3527714    2.4250101 *  3.5991989  
  11 H       1.0850600 *  2.1327767 *  3.3856008    4.0431728    3.3388169  
  12 H       1.0831280 *  2.1306817 *  2.7466179 *  3.4900684    3.2823478  
  13 H       2.1256296 *  1.0838675 *  2.1247052 *  3.2632670    3.0959802  
  14 H       2.7335177 *  2.1287191 *  1.0835590 *  2.3783828 *  3.2599881  
  15 H       3.3888178    2.1360856 *  1.0847362 *  2.4672952 *  3.3641495  
  16 H       4.0507060    3.3672496    2.4707205 *  1.0861791 *  2.1362664 *
  17 H       3.2350153    3.0990285    3.2735827    2.1470430 *  1.0831671 *
  18 H       2.4525356 *  3.3917579    4.0362543    3.3681499    2.1382547 *
  19 H       3.1718921    4.2734940    4.4740165    3.9141873    3.4069079  
  20 H       4.3100453    4.8158120    4.2648991    3.5368794    3.8999100  

                6 C          7 C          8 C          9 C         10 O     

   1 C       1.9999999 *  2.6956209 *  3.4330934    3.7121628    4.7986022  
   2 C       2.7395814 *  3.5401052    3.8900073    3.6086985    4.5160708  
   3 C       3.1055888    3.5550690    3.4091777    2.6903083 *  3.3527714  
   4 C       2.3874917 *  2.8336285 *  2.5584879 *  1.5349833 *  2.4250101 *
   5 C       1.4023554 *  2.4572634 *  2.8299557 *  2.4952028 *  3.5991989  
   6 C       0.0000000    1.5068187 *  2.4702721 *  2.8915501 *  4.1147989  
   7 C       1.5068187 *  0.0000000    1.3177283 *  2.4643100 *  3.5797087  
   8 C       2.4702721 *  1.3177283 *  0.0000000    1.5113974 *  2.4089132 *
   9 C       2.8915501 *  2.4643100 *  1.5113974 *  0.0000000    1.2238400 *
  10 O       4.1147989    3.5797087    2.4089132 *  1.2238400 *  0.0000000  
  11 H       2.4904075 *  3.3572585    4.3166572    4.7131507    5.8393940  
  12 H       2.3536463 *  2.3814868 *  3.0152281    3.5951737    4.6093334  
  13 H       3.2997422    4.3792979    4.8159534    4.4137778    5.2993444  
  14 H       3.3913396    3.3635569    2.9550370 *  2.3824565 *  2.8831822 *
  15 H       4.0291453    4.5580341    4.2877973    3.2824064    3.6639019  
  16 H       3.3681322    3.8901369    3.4958770    2.2020869 *  2.6379454 *
  17 H       2.1482825 *  3.4410259    3.9073831    3.4720668    4.4773526  
  18 H       1.0856778 *  2.1917721 *  3.3677081    3.9363252    5.1552172  
  19 H       2.2200061 *  1.0845679 *  2.0960174 *  3.4652389    4.4952336  
  20 H       3.4716225    2.1039918 *  1.0820795 *  2.2202051 *  2.6682189 *

               11 H         12 H         13 H         14 H         15 H     

   1 C       1.0850600 *  1.0831280 *  2.1256296 *  2.7335177 *  3.3888178  
   2 C       2.1327767 *  2.1306817 *  1.0838675 *  2.1287191 *  2.1360856 *
   3 C       3.3856008    2.7466179 *  2.1247052 *  1.0835590 *  1.0847362 *
   4 C       4.0431728    3.4900684    3.2632670    2.3783828 *  2.4672952 *
   5 C       3.3388169    3.2823478    3.0959802    3.2599881    3.3641495  
   6 C       2.4904075 *  2.3536463 *  3.2997422    3.3913396    4.0291453  
   7 C       3.3572585    2.3814868 *  4.3792979    3.3635569    4.5580341  
   8 C       4.3166572    3.0152281    4.8159534    2.9550370 *  4.2877973  
   9 C       4.7131507    3.5951737    4.4137778    2.3824565 *  3.2824064  
  10 O       5.8393940    4.6093334    5.2993444    2.8831822 *  3.6639019  
  11 H       0.0000000    1.8049655 *  2.4245726 *  3.7901937    4.2550851  
  12 H       1.8049655 *  0.0000000    3.0575609    2.6178725 *  3.7977679  
  13 H       2.4245726 *  3.0575609    0.0000000    3.0586095    2.4328129 *
  14 H       3.7901937    2.6178725 *  3.0586095    0.0000000    1.8042094 *
  15 H       4.2550851    3.7977679    2.4328129 *  1.8042094 *  0.0000000  
  16 H       4.9012435    4.4855906    3.6569163    2.9704380 *  2.4590084 *
  17 H       3.6075577    4.0189793    3.0610393    4.0333916    3.6952998  
  18 H       2.4669280 *  2.8941431 *  3.7427766    4.3976157    4.9286478  
  19 H       3.5941367    2.6730161 *  5.1040524    4.2117487    5.5194013  
  20 H       5.1708209    3.6946548    5.7962684    3.6097051    5.1052162  

               16 H         17 H         18 H         19 H         20 H     

   1 C       4.0507060    3.2350153    2.4525356 *  3.1718921    4.3100453  
   2 C       3.3672496    3.0990285    3.3917579    4.2734940    4.8158120  
   3 C       2.4707205 *  3.2735827    4.0362543    4.4740165    4.2648991  
   4 C       1.0861791 *  2.1470430 *  3.3681499    3.9141873    3.5368794  
   5 C       2.1362664 *  1.0831671 *  2.1382547 *  3.4069079    3.8999100  
   6 C       3.3681322    2.1482825 *  1.0856778 *  2.2200061 *  3.4716225  
   7 C       3.8901369    3.4410259    2.1917721 *  1.0845679 *  2.1039918 *
   8 C       3.4958770    3.9073831    3.3677081    2.0960174 *  1.0820795 *
   9 C       2.2020869 *  3.4720668    3.9363252    3.4652389    2.2202051 *
  10 O       2.6379454 *  4.4773526    5.1552172    4.4952336    2.6682189 *
  11 H       4.9012435    3.6075577    2.4669280 *  3.5941367    5.1708209  
  12 H       4.4855906    4.0189793    2.8941431 *  2.6730161 *  3.6946548  
  13 H       3.6569163    3.0610393    3.7427766    5.1040524    5.7962684  
  14 H       2.9704380 *  4.0333916    4.3976157    4.2117487    3.6097051  
  15 H       2.4590084 *  3.6952998    4.9286478    5.5194013    5.1052162  
  16 H       0.0000000    2.4615439 *  4.2578010    4.9714077    4.3821895  
  17 H       2.4615439 *  0.0000000    2.4680576 *  4.2937580    4.9713826  
  18 H       4.2578010    2.4680576 *  0.0000000    2.4708737 *  4.2726348  
  19 H       4.9714077    4.2937580    2.4708737 *  0.0000000    2.4562842 *
  20 H       4.3821895    4.9713826    4.2726348    2.4562842 *  0.0000000  

  * ... LESS THAN  3.000


     ATOMIC BASIS SET
     ----------------
 THE CONTRACTED PRIMITIVE FUNCTIONS HAVE BEEN UNNORMALIZED
 THE CONTRACTED BASIS FUNCTIONS ARE NOW NORMALIZED TO UNITY

  SHELL TYPE  PRIMITIVE        EXPONENT          CONTRACTION COEFFICIENT(S)

 C         

      1   S       1            71.6168373    0.154328967295
      1   S       2            13.0450963    0.535328142282
      1   S       3             3.5305122    0.444634542185

      2   L       4             2.9412494   -0.099967229187    0.155916274999
      2   L       5             0.6834831    0.399512826089    0.607683718598
      2   L       6             0.2222899    0.700115468880    0.391957393099

 C         

      3   S       7            71.6168373    0.154328967295
      3   S       8            13.0450963    0.535328142282
      3   S       9             3.5305122    0.444634542185

      4   L      10             2.9412494   -0.099967229187    0.155916274999
      4   L      11             0.6834831    0.399512826089    0.607683718598
      4   L      12             0.2222899    0.700115468880    0.391957393099

 C         

      5   S      13            71.6168373    0.154328967295
      5   S      14            13.0450963    0.535328142282
      5   S      15             3.5305122    0.444634542185

      6   L      16             2.9412494   -0.099967229187    0.155916274999
      6   L      17             0.6834831    0.399512826089    0.607683718598
      6   L      18             0.2222899    0.700115468880    0.391957393099

 C         

      7   S      19            71.6168373    0.154328967295
      7   S      20            13.0450963    0.535328142282
      7   S      21             3.5305122    0.444634542185

      8   L      22             2.9412494   -0.099967229187    0.155916274999
      8   L      23             0.6834831    0.399512826089    0.607683718598
      8   L      24             0.2222899    0.700115468880    0.391957393099

 C         

      9   S      25            71.6168373    0.154328967295
      9   S      26            13.0450963    0.535328142282
      9   S      27             3.5305122    0.444634542185

     10   L      28             2.9412494   -0.099967229187    0.155916274999
     10   L      29             0.6834831    0.399512826089    0.607683718598
     10   L      30             0.2222899    0.700115468880    0.391957393099

 C         

     11   S      31            71.6168373    0.154328967295
     11   S      32            13.0450963    0.535328142282
     11   S      33             3.5305122    0.444634542185

     12   L      34             2.9412494   -0.099967229187    0.155916274999
     12   L      35             0.6834831    0.399512826089    0.607683718598
     12   L      36             0.2222899    0.700115468880    0.391957393099

 C         

     13   S      37            71.6168373    0.154328967295
     13   S      38            13.0450963    0.535328142282
     13   S      39             3.5305122    0.444634542185

     14   L      40             2.9412494   -0.099967229187    0.155916274999
     14   L      41             0.6834831    0.399512826089    0.607683718598
     14   L      42             0.2222899    0.700115468880    0.391957393099

 C         

     15   S      43            71.6168373    0.154328967295
     15   S      44            13.0450963    0.535328142282
     15   S      45             3.5305122    0.444634542185

     16   L      46             2.9412494   -0.099967229187    0.155916274999
     16   L      47             0.6834831    0.399512826089    0.607683718598
     16   L      48             0.2222899    0.700115468880    0.391957393099

 C         

     17   S      49            71.6168373    0.154328967295
     17   S      50            13.0450963    0.535328142282
     17   S      51             3.5305122    0.444634542185

     18   L      52             2.9412494   -0.099967229187    0.155916274999
     18   L      53             0.6834831    0.399512826089    0.607683718598
     18   L      54             0.2222899    0.700115468880    0.391957393099

 O         

     19   S      55           130.7093214    0.154328967295
     19   S      56            23.8088661    0.535328142282
     19   S      57             6.4436083    0.444634542185

     20   L      58             5.0331513   -0.099967229187    0.155916274999
     20   L      59             1.1695961    0.399512826089    0.607683718598
     20   L      60             0.3803890    0.700115468880    0.391957393099

 H         

     21   S      61             3.4252509    0.154328967295
     21   S      62             0.6239137    0.535328142282
     21   S      63             0.1688554    0.444634542185

 H         

     22   S      64             3.4252509    0.154328967295
     22   S      65             0.6239137    0.535328142282
     22   S      66             0.1688554    0.444634542185

 H         

     23   S      67             3.4252509    0.154328967295
     23   S      68             0.6239137    0.535328142282
     23   S      69             0.1688554    0.444634542185

 H         

     24   S      70             3.4252509    0.154328967295
     24   S      71             0.6239137    0.535328142282
     24   S      72             0.1688554    0.444634542185

 H         

     25   S      73             3.4252509    0.154328967295
     25   S      74             0.6239137    0.535328142282
     25   S      75             0.1688554    0.444634542185

 H         

     26   S      76             3.4252509    0.154328967295
     26   S      77             0.6239137    0.535328142282
     26   S      78             0.1688554    0.444634542185

 H         

     27   S      79             3.4252509    0.154328967295
     27   S      80             0.6239137    0.535328142282
     27   S      81             0.1688554    0.444634542185

 H         

     28   S      82             3.4252509    0.154328967295
     28   S      83             0.6239137    0.535328142282
     28   S      84             0.1688554    0.444634542185

 H         

     29   S      85             3.4252509    0.154328967295
     29   S      86             0.6239137    0.535328142282
     29   S      87             0.1688554    0.444634542185

 H         

     30   S      88             3.4252509    0.154328967295
     30   S      89             0.6239137    0.535328142282
     30   S      90             0.1688554    0.444634542185

 TOTAL NUMBER OF BASIS SET SHELLS             =   30
 NUMBER OF CARTESIAN GAUSSIAN BASIS FUNCTIONS =   60
 NUMBER OF ELECTRONS                          =   72
 CHARGE OF MOLECULE                           =    0
 SPIN MULTIPLICITY                            =    1
 NUMBER OF OCCUPIED ORBITALS (ALPHA)          =   36
 NUMBER OF OCCUPIED ORBITALS (BETA )          =   36
 TOTAL NUMBER OF ATOMS                        =   20
 THE NUCLEAR REPULSION ENERGY IS      509.6700610008

     $CONTRL OPTIONS
     ---------------
 SCFTYP=RHF          RUNTYP=SADPOINT     EXETYP=RUN     
 MPLEVL=       0     CITYP =NONE         CCTYP =NONE         VBTYP =NONE    
 DFTTYP=NONE         TDDFT =NONE    
 MULT  =       1     ICHARG=       0     NZVAR =       0     COORD =UNIQUE  
 PP    =NONE         RELWFN=NONE         LOCAL =NONE         NUMGRD=       F
 ISPHER=      -1     NOSYM =       0     MAXIT =      30     UNITS =ANGS    
 PLTORB=       F     MOLPLT=       F     AIMPAC=       F     FRIEND=        
 NPRINT=       7     IREST =       0     GEOM  =INPUT   
 NORMF =       0     NORMP =       0     ITOL  =      20     ICUT  =       9
 INTTYP=BEST         GRDTYP=BEST         QMTTOL= 1.0E-06

     $SYSTEM OPTIONS
     ---------------
  REPLICATED MEMORY=     1000000 WORDS (ON EVERY NODE).
 DISTRIBUTED MEMDDI=           0 MILLION WORDS IN AGGREGATE,
 MEMDDI DISTRIBUTED OVER   1 PROCESSORS IS           0 WORDS/PROCESSOR.
 TOTAL MEMORY REQUESTED ON EACH PROCESSOR=     1000000 WORDS.
 TIMLIM=      525600.00 MINUTES, OR     365.0 DAYS.
 PARALL= F  BALTYP=  DLB     KDIAG=    0  COREFL= F
 MXSEQ2=     300 MXSEQ3=     150  mem10=         0

          ----------------
          PROPERTIES INPUT
          ----------------

     MOMENTS            FIELD           POTENTIAL          DENSITY
 IEMOM =       1   IEFLD =       0   IEPOT =       0   IEDEN =       0
 WHERE =COMASS     WHERE =NUCLEI     WHERE =NUCLEI     WHERE =NUCLEI  
 OUTPUT=BOTH       OUTPUT=BOTH       OUTPUT=BOTH       OUTPUT=BOTH    
 IEMINT=       0   IEFINT=       0                     IEDINT=       0
                                                       MORB  =       0
          EXTRAPOLATION IN EFFECT
          SOSCF IN EFFECT
 ORBITAL PRINTING OPTION: NPREO=     1    60     2     1

     -------------------------------
     INTEGRAL TRANSFORMATION OPTIONS
     -------------------------------
     NWORD  =            0
     CUTOFF = 1.0E-09     MPTRAN =       0
     DIRTRF =       F     AOINTS =DUP     

          ----------------------
          INTEGRAL INPUT OPTIONS
          ----------------------
 NOPK  =       1 NORDER=       0 SCHWRZ=       T

     ------------------------------------------
     THE POINT GROUP IS C1 , NAXIS= 0, ORDER= 1
     ------------------------------------------

     DIMENSIONS OF THE SYMMETRY SUBSPACES ARE
 A   =   60

 ..... DONE SETTING UP THE RUN .....
 STEP CPU TIME =     0.05 TOTAL CPU TIME =          0.0 (      0.0 MIN)
 TOTAL WALL CLOCK TIME=          0.1 SECONDS, CPU UTILIZATION IS    83.33%


          -----------------------------
          STATIONARY POINT LOCATION RUN
          -----------------------------

 OBTAINING INITIAL HESSIAN, HESS=CALC    

     ---------------------------------
     HESSIAN MATRIX CONTROL PARAMETERS
     ---------------------------------
     METHOD=ANALYTIC   NVIB  =       2   VIBSIZ= 0.01000
     RDHESS=       F   PURIFY=       F   PRTIFC=       F
     VIBANL=       F   DECOMP=       F   PROJCT=       F
     SCLFAC= 1.00000   PRTSCN=       F   NPRT  =       0
     PULCOR=       F   NPUN  =       0   REDOVB=       T
     HSSTYP=GENERAL 
 Old integral subroutine is used

     ------------------------------
     CPHF RESPONSE SOLUTION OPTIONS
     ------------------------------
     POLAR  =       F     NWORD  =       0
     CPHF   =AO      

          ********************
          1 ELECTRON INTEGRALS
          ********************
 ...... END OF ONE-ELECTRON INTEGRALS ......
 STEP CPU TIME =     0.02 TOTAL CPU TIME =          0.1 (      0.0 MIN)
 TOTAL WALL CLOCK TIME=          0.1 SECONDS, CPU UTILIZATION IS    87.50%

          -------------
          GUESS OPTIONS
          -------------
          GUESS =HUCKEL            NORB  =       0          NORDER=       0
          MIX   =       F          PRTMO =       F          PUNMO =       F
          TOLZ  = 1.0E-08          TOLE  = 1.0E-05
          SYMDEN=       F          PURIFY=       F

 INITIAL GUESS ORBITALS GENERATED BY HUCKEL   ROUTINE.
 HUCKEL GUESS REQUIRES     53820 WORDS.

 SYMMETRIES FOR INITIAL GUESS ORBITALS FOLLOW.   BOTH SET(S).
    36 ORBITALS ARE OCCUPIED (   10 CORE ORBITALS).
    11=A       12=A       13=A       14=A       15=A       16=A       17=A   
    18=A       19=A       20=A       21=A       22=A       23=A       24=A   
    25=A       26=A       27=A       28=A       29=A       30=A       31=A   
    32=A       33=A       34=A       35=A       36=A       37=A       38=A   
    39=A       40=A       41=A       42=A       43=A       44=A       45=A   
    46=A   
 ...... END OF INITIAL ORBITAL SELECTION ......
 STEP CPU TIME =     0.02 TOTAL CPU TIME =          0.1 (      0.0 MIN)
 TOTAL WALL CLOCK TIME=          0.1 SECONDS, CPU UTILIZATION IS    90.00%

                    ----------------------
                    AO INTEGRAL TECHNOLOGY
                    ----------------------
     S,P,L SHELL ROTATED AXIS INTEGRALS, REPROGRAMMED BY
        KAZUYA ISHIMURA (IMS) AND JOSE SIERRA (SYNSTAR).
     S,P,D,L SHELL ROTATED AXIS INTEGRALS PROGRAMMED BY
        KAZUYA ISHIMURA (INSTITUTE FOR MOLECULAR SCIENCE).
     S,P,D,F,G SHELL TO TOTAL QUARTET ANGULAR MOMENTUM SUM 5,
        ERIC PROGRAM BY GRAHAM FLETCHER (ELORET AND NASA ADVANCED
        SUPERCOMPUTING DIVISION, AMES RESEARCH CENTER).
     S,P,D,F,G,L SHELL GENERAL RYS QUADRATURE PROGRAMMED BY
        MICHEL DUPUIS (PACIFIC NORTHWEST NATIONAL LABORATORY).

          --------------------
          2 ELECTRON INTEGRALS
          --------------------

 THE -PK- OPTION IS OFF, THE INTEGRALS ARE NOT IN SUPERMATRIX FORM.
 STORING   15000 INTEGRALS/RECORD ON DISK, USING 12 BYTES/INTEGRAL.
 TWO ELECTRON INTEGRAL EVALUATION REQUIRES   89821 WORDS OF MEMORY.
 SCHWARZ INEQUALITY OVERHEAD:      1797 INTEGRALS, T=        0.01
 II,JST,KST,LST =  1  1  1  1 NREC =         1 INTLOC =    1
 II,JST,KST,LST =  2  1  1  1 NREC =         1 INTLOC =    2
 II,JST,KST,LST =  3  1  1  1 NREC =         1 INTLOC =   34
 II,JST,KST,LST =  4  1  1  1 NREC =         1 INTLOC =  144
 II,JST,KST,LST =  5  1  1  1 NREC =         1 INTLOC = 1366
 II,JST,KST,LST =  6  1  1  1 NREC =         1 INTLOC = 1964
 II,JST,KST,LST =  7  1  1  1 NREC =         1 INTLOC = 6867
 II,JST,KST,LST =  8  1  1  1 NREC =         1 INTLOC = 8489
 II,JST,KST,LST =  9  1  1  1 NREC =         2 INTLOC = 5917
 II,JST,KST,LST = 10  1  1  1 NREC =         2 INTLOC = 9725
 II,JST,KST,LST = 11  1  1  1 NREC =         4 INTLOC = 5099
 II,JST,KST,LST = 12  1  1  1 NREC =         4 INTLOC =12226
 II,JST,KST,LST = 13  1  1  1 NREC =         7 INTLOC =12367
 II,JST,KST,LST = 14  1  1  1 NREC =         8 INTLOC = 8630
 II,JST,KST,LST = 15  1  1  1 NREC =        13 INTLOC = 5643
 II,JST,KST,LST = 16  1  1  1 NREC =        14 INTLOC = 7902
 II,JST,KST,LST = 17  1  1  1 NREC =        21 INTLOC =11306
 II,JST,KST,LST = 18  1  1  1 NREC =        23 INTLOC = 7143
 II,JST,KST,LST = 19  1  1  1 NREC =        33 INTLOC =14274
 II,JST,KST,LST = 20  1  1  1 NREC =        35 INTLOC = 9858
 II,JST,KST,LST = 21  1  1  1 NREC =        47 INTLOC =11023
 II,JST,KST,LST = 22  1  1  1 NREC =        51 INTLOC = 6453
 II,JST,KST,LST = 23  1  1  1 NREC =        55 INTLOC =10688
 II,JST,KST,LST = 24  1  1  1 NREC =        59 INTLOC =14050
 II,JST,KST,LST = 25  1  1  1 NREC =        64 INTLOC =12825
 II,JST,KST,LST = 26  1  1  1 NREC =        69 INTLOC =13201
 II,JST,KST,LST = 27  1  1  1 NREC =        75 INTLOC = 4874
 II,JST,KST,LST = 28  1  1  1 NREC =        81 INTLOC =   11
 II,JST,KST,LST = 29  1  1  1 NREC =        86 INTLOC =12659
 II,JST,KST,LST = 30  1  1  1 NREC =        93 INTLOC =  114
 SCHWARZ INEQUALITY TEST SKIPPED       24113 INTEGRAL BLOCKS.
 TOTAL NUMBER OF NONZERO TWO-ELECTRON INTEGRALS =             1477473
         99 INTEGRAL RECORDS WERE STORED ON DISK FILE  8.
  ...... END OF TWO-ELECTRON INTEGRALS .....
 STEP CPU TIME =     0.29 TOTAL CPU TIME =          0.4 (      0.0 MIN)
 TOTAL WALL CLOCK TIME=          0.4 SECONDS, CPU UTILIZATION IS    97.44%

          --------------------------
                 RHF SCF CALCULATION
          --------------------------

     NUCLEAR ENERGY =       509.6700610008
     MAXIT =   30     NPUNCH=    2
     EXTRAP=T  DAMP=F  SHIFT=F  RSTRCT=F  DIIS=F  DEM=F  SOSCF=T
     DENSITY MATRIX CONV=  1.00E-05
     SOSCF WILL OPTIMIZE     864 ORBITAL ROTATIONS, SOGTOL=   0.250
     MEMORY REQUIRED FOR RHF ITERS=     59496 WORDS.

 ITER EX DEM     TOTAL ENERGY        E CHANGE  DENSITY CHANGE     ORB. GRAD
   1  0  0     -415.5233193839  -415.5233193839   0.524931825   0.000000000
          ---------------START SECOND ORDER SCF---------------
   2  1  0     -416.0288471643    -0.5055277804   0.262979987   0.064716718
   3  2  0     -416.0582525695    -0.0294054052   0.117471832   0.049266490
   4  3  0     -416.0921770350    -0.0339244655   0.014944823   0.007298521
   5  4  0     -416.0930434068    -0.0008663719   0.003943069   0.002939094
   6  5  0     -416.0931514943    -0.0001080875   0.002165461   0.000763311
   7  6  0     -416.0931640336    -0.0000125392   0.000721992   0.000261652
   8  7  0     -416.0931658878    -0.0000018542   0.000316288   0.000073030
   9  8  0     -416.0931660653    -0.0000001775   0.000181540   0.000023583
  10  9  0     -416.0931660971    -0.0000000318   0.000058959   0.000011432
  11 10  0     -416.0931661022    -0.0000000051   0.000024718   0.000003472
  12 11  0     -416.0931661031    -0.0000000010   0.000006458   0.000001376
  13 12  0     -416.0931661032    -0.0000000001   0.000003579   0.000000513

          -----------------
          DENSITY CONVERGED
          -----------------
     TIME TO FORM FOCK OPERATORS=       0.3 SECONDS (       0.0 SEC/ITER)
     TIME TO SOLVE SCF EQUATIONS=       0.0 SECONDS (       0.0 SEC/ITER)

 FINAL RHF ENERGY IS     -416.0931661032 AFTER  13 ITERATIONS

          ------------
          EIGENVECTORS
          ------------

                      1          2          3          4          5
                  -20.2612   -11.1181   -11.0543   -11.0493   -11.0456
                     A          A          A          A          A   
    1  C  1  S   -0.000000   0.000023  -0.030528  -0.005715  -0.087361
    2  C  1  S    0.000003  -0.000004  -0.003831   0.000015  -0.003069
    3  C  1  X    0.000001   0.000005  -0.001370  -0.000079   0.000131
    4  C  1  Y    0.000001  -0.000005  -0.001663  -0.000238   0.000065
    5  C  1  Z    0.000002  -0.000013   0.001203   0.000180   0.000085
    6  C  2  S   -0.000000   0.000015  -0.000572   0.000061   0.003844
    7  C  2  S    0.000010  -0.000030   0.000352   0.000059  -0.006026
    8  C  2  X   -0.000008   0.000061   0.000240   0.000037   0.002015
    9  C  2  Y    0.000004  -0.000012  -0.000043  -0.000002  -0.000571
   10  C  2  Z   -0.000004   0.000006   0.000010  -0.000048   0.004116
   11  C  3  S   -0.000005  -0.000222  -0.000699   0.000652   0.958098
   12  C  3  S   -0.000000   0.000304  -0.000021   0.000046   0.035510
   13  C  3  X    0.000010  -0.000139  -0.000077  -0.000008  -0.000060
   14  C  3  Y    0.000021  -0.000205  -0.000003   0.000002  -0.000658
   15  C  3  Z   -0.000040   0.000107  -0.000002  -0.000026   0.000737
   16  C  4  S   -0.000024  -0.001608  -0.004051  -0.005417  -0.241654
   17  C  4  S    0.000270  -0.005398  -0.000068  -0.000229  -0.011322
   18  C  4  X   -0.000278  -0.001249  -0.000086  -0.000142   0.001025
   19  C  4  Y    0.000088   0.002069   0.000163   0.000104   0.001392
   20  C  4  Z   -0.000378   0.003228  -0.000048  -0.000014  -0.001086
   21  C  5  S    0.000004  -0.000277   0.003946  -0.001148  -0.002014
   22  C  5  S    0.000033   0.000070  -0.006880  -0.000015   0.001805
   23  C  5  X   -0.000060  -0.000015  -0.002974  -0.000112  -0.000820
   24  C  5  Y    0.000025  -0.000007   0.003181   0.000064  -0.000293
   25  C  5  Z    0.000030   0.000023  -0.001374   0.000063  -0.000847
   26  C  6  S    0.000003  -0.000254   0.991335   0.024231  -0.003147
   27  C  6  S    0.000007  -0.000064   0.036232  -0.004858   0.000117
   28  C  6  X    0.000029   0.000021   0.000344  -0.001409  -0.000105
   29  C  6  Y    0.000007   0.000021   0.001204   0.002338  -0.000127
   30  C  6  Z    0.000029   0.000105  -0.001216   0.003128   0.000097
   31  C  7  S    0.000005  -0.000272  -0.023436   0.991729  -0.002416
   32  C  7  S    0.000054   0.000111  -0.006871   0.035857  -0.000058
   33  C  7  X    0.000036  -0.000059   0.001518  -0.000789  -0.000038
   34  C  7  Y   -0.000047   0.000057  -0.002700  -0.000175   0.000031
   35  C  7  Z   -0.000049   0.000037  -0.003007  -0.001466   0.000002
   36  C  8  S   -0.000025  -0.001005  -0.001146   0.019707   0.000524
   37  C  8  S    0.000270  -0.005689   0.000345  -0.007398   0.000039
   38  C  8  X   -0.000131   0.003431   0.000007  -0.002051  -0.000041
   39  C  8  Y   -0.000104  -0.002061   0.000108  -0.000274  -0.000026
   40  C  8  Z   -0.000485   0.000996   0.000151  -0.004072   0.000022
   41  C  9  S    0.000548   0.992564   0.000267   0.000342  -0.000399
   42  C  9  S   -0.007195   0.032729  -0.000008   0.000149   0.001528
   43  C  9  X    0.002970  -0.000145  -0.000090  -0.000057  -0.000366
   44  C  9  Y    0.000195  -0.000182   0.000043  -0.000021   0.000628
   45  C  9  Z    0.005646  -0.000357  -0.000103  -0.000140   0.000809
   46  O 10  S    0.994267   0.000162   0.000005   0.000013  -0.000003
   47  O 10  S    0.025992  -0.005790  -0.000052  -0.000115  -0.000031
   48  O 10  X    0.002607  -0.000808  -0.000013  -0.000041  -0.000004
   49  O 10  Y    0.000161  -0.000032  -0.000008   0.000010  -0.000050
   50  O 10  Z    0.004966  -0.001526  -0.000031  -0.000049  -0.000015
   51  H 11  S   -0.000002   0.000002   0.000358  -0.000012   0.000511
   52  H 12  S   -0.000002   0.000006   0.000363  -0.000952   0.000579
   53  H 13  S   -0.000002   0.000006  -0.000001   0.000001   0.000038
   54  H 14  S    0.000080  -0.001058   0.000005  -0.000042  -0.006732
   55  H 15  S   -0.000006  -0.000035  -0.000017  -0.000014  -0.006693
   56  H 16  S   -0.000179  -0.000014  -0.000090  -0.000023   0.001830
   57  H 17  S   -0.000020  -0.000052   0.000080  -0.000080  -0.000014
   58  H 18  S   -0.000016  -0.000026  -0.006924  -0.000128   0.000019
   59  H 19  S   -0.000021  -0.000038   0.000241  -0.006826   0.000025
   60  H 20  S   -0.000192   0.000012  -0.000037   0.000011   0.000014

                      6          7          8          9         10
                  -11.0452   -11.0444   -11.0258   -11.0184   -11.0121
                     A          A          A          A          A   
    1  C  1  S    0.987696   0.016824  -0.000217   0.000973  -0.003460
    2  C  1  S    0.035870   0.000646   0.000047   0.000289  -0.007234
    3  C  1  X   -0.001346  -0.000029   0.000031  -0.000034   0.004326
    4  C  1  Y   -0.000900  -0.000052  -0.000043  -0.000089  -0.001534
    5  C  1  Z    0.000429   0.000095  -0.000010   0.000007   0.000682
    6  C  2  S    0.004590   0.000527   0.000105  -0.018477   0.991932
    7  C  2  S   -0.007359  -0.001683   0.000028  -0.001166   0.036727
    8  C  2  X   -0.004075   0.000332   0.000004  -0.000382   0.001554
    9  C  2  Y    0.001415  -0.000051   0.000009  -0.000537   0.001544
   10  C  2  Z   -0.000320   0.000919  -0.000002   0.000259  -0.001299
   11  C  3  S    0.080613   0.244901  -0.000270   0.000891  -0.003420
   12  C  3  S    0.003148   0.006277   0.000087   0.000298  -0.007232
   13  C  3  X   -0.000122  -0.001528  -0.000022  -0.000039  -0.001759
   14  C  3  Y   -0.000004  -0.001990  -0.000043  -0.000059   0.000428
   15  C  3  Z    0.000059   0.001268  -0.000064   0.000018  -0.004271
   16  C  4  S   -0.037899   0.961494   0.001491  -0.004613   0.000545
   17  C  4  S   -0.001564   0.034085   0.000248  -0.007297   0.000019
   18  C  4  X    0.000058   0.001717  -0.000006  -0.003055  -0.000076
   19  C  4  Y    0.000153   0.001494   0.000050  -0.001109  -0.000002
   20  C  4  Z   -0.000103  -0.000383  -0.000043  -0.003264  -0.000143
   21  C  5  S   -0.001020   0.005025  -0.004280   0.991918   0.018716
   22  C  5  S    0.000154  -0.006687  -0.000268   0.036682   0.000198
   23  C  5  X   -0.000154   0.002947  -0.000066  -0.001198   0.000379
   24  C  5  Y   -0.000021   0.000997   0.000140  -0.002080   0.000367
   25  C  5  Z   -0.000139   0.003111   0.000160   0.000564  -0.000326
   26  C  6  S    0.031316   0.004835   0.000710  -0.003136   0.000406
   27  C  6  S   -0.001559   0.000170   0.000406  -0.007217   0.000019
   28  C  6  X    0.001486   0.000177   0.000131   0.002968   0.000136
   29  C  6  Y    0.001659   0.000141  -0.000067  -0.003251  -0.000067
   30  C  6  Z   -0.001236   0.000102  -0.000061   0.001328   0.000046
   31  C  7  S    0.004727   0.005150  -0.019188   0.001212  -0.000076
   32  C  7  S    0.000131   0.000117  -0.008919   0.000147   0.000008
   33  C  7  X    0.000011   0.000157   0.002099   0.000058  -0.000039
   34  C  7  Y   -0.000080  -0.000076   0.000280  -0.000116  -0.000025
   35  C  7  Z   -0.000003   0.000016   0.004203   0.000127  -0.000004
   36  C  8  S    0.000345  -0.001219   0.991968   0.004376  -0.000031
   37  C  8  S    0.000019   0.000065   0.036541   0.000092  -0.000014
   38  C  8  X   -0.000011   0.000005   0.000773   0.000036  -0.000001
   39  C  8  Y   -0.000019   0.000000   0.000278  -0.000171  -0.000003
   40  C  8  Z    0.000014  -0.000049   0.001716  -0.000096  -0.000003
   41  C  9  S   -0.000096   0.002579   0.001994   0.000339  -0.000013
   42  C  9  S    0.000241  -0.005466  -0.005878   0.000129  -0.000010
   43  C  9  X   -0.000060   0.001305  -0.003502  -0.000158   0.000006
   44  C  9  Y    0.000096  -0.002387   0.002137  -0.000034  -0.000043
   45  C  9  Z    0.000126  -0.003024  -0.000840  -0.000034   0.000024
   46  O 10  S    0.000001  -0.000022  -0.000022   0.000009   0.000000
   47  O 10  S   -0.000011   0.000244   0.000249  -0.000084   0.000005
   48  O 10  X   -0.000002  -0.000057   0.000185   0.000007   0.000006
   49  O 10  Y   -0.000010   0.000136  -0.000107   0.000005   0.000005
   50  O 10  Z   -0.000006   0.000175   0.000059  -0.000051   0.000000
   51  H 11  S   -0.006892  -0.000160  -0.000010  -0.000031   0.000107
   52  H 12  S   -0.006910  -0.000131  -0.000105  -0.000057   0.000014
   53  H 13  S    0.000051   0.000009  -0.000004   0.000141  -0.007002
   54  H 14  S   -0.000617  -0.001576  -0.000210  -0.000044   0.000020
   55  H 15  S   -0.000672  -0.001574  -0.000018  -0.000040   0.000105
   56  H 16  S    0.000258  -0.006692  -0.000099   0.000120  -0.000033
   57  H 17  S   -0.000001   0.000068  -0.000031  -0.006919  -0.000118
   58  H 18  S   -0.000085  -0.000155  -0.000094   0.000106  -0.000042
   59  H 19  S    0.000012  -0.000092   0.000266  -0.000106  -0.000003
   60  H 20  S   -0.000001  -0.000067  -0.006868  -0.000089   0.000001

                     11         12         13         14         15
                   -1.3129    -1.0917    -1.0182    -0.9718    -0.9334
                     A          A          A          A          A   
    1  C  1  S   -0.000703  -0.056415  -0.102724   0.069573  -0.076339
    2  C  1  S    0.001710   0.149959   0.276449  -0.191507   0.219030
    3  C  1  X   -0.000159  -0.015436  -0.080343   0.035068   0.025769
    4  C  1  Y    0.000261   0.017284   0.015018   0.005146   0.009273
    5  C  1  Z   -0.000433  -0.017959  -0.008160   0.003334   0.001152
    6  C  2  S   -0.001043  -0.058408  -0.147818   0.066228   0.012186
    7  C  2  S    0.002308   0.145750   0.383143  -0.175430  -0.032754
    8  C  2  X    0.000184   0.023721   0.035257  -0.032256   0.072131
    9  C  2  Y    0.000293   0.003551   0.001845   0.013341  -0.020565
   10  C  2  Z   -0.001011  -0.024380  -0.051510   0.001137   0.062635
   11  C  3  S   -0.003133  -0.051102  -0.114873   0.018428   0.091594
   12  C  3  S    0.007671   0.135730   0.310196  -0.047027  -0.260647
   13  C  3  X    0.001666   0.023161   0.027272  -0.000914   0.000684
   14  C  3  Y    0.000565   0.003318  -0.015789   0.028302  -0.002466
   15  C  3  Z   -0.001992   0.017983   0.071073  -0.044143   0.006847
   16  C  4  S   -0.021441  -0.087691  -0.008648  -0.125961   0.084069
   17  C  4  S    0.053625   0.230040   0.026291   0.348164  -0.241587
   18  C  4  X    0.009330   0.047867  -0.026963   0.053265   0.013005
   19  C  4  Y   -0.014300  -0.006996  -0.006619   0.034394   0.030552
   20  C  4  Z   -0.021236   0.030169   0.016725   0.039992   0.045750
   21  C  5  S   -0.005572  -0.108609   0.008425  -0.128272  -0.047945
   22  C  5  S    0.012752   0.273119  -0.021843   0.342523   0.130819
   23  C  5  X   -0.002472   0.001084  -0.023696  -0.049543   0.089416
   24  C  5  Y   -0.003036  -0.063969   0.008183  -0.025057  -0.041479
   25  C  5  Z   -0.004413  -0.016006   0.005258  -0.039079   0.078682
   26  C  6  S   -0.003225  -0.112725   0.031038  -0.020085  -0.131099
   27  C  6  S    0.007686   0.296991  -0.082802   0.051410   0.372719
   28  C  6  X   -0.001126  -0.027138  -0.027767  -0.058891  -0.003086
   29  C  6  Y    0.000186   0.010195   0.005167   0.092612   0.023752
   30  C  6  Z   -0.002685  -0.049436   0.046131   0.003458   0.011939
   31  C  7  S   -0.006025  -0.103321   0.093462   0.105314  -0.008316
   32  C  7  S    0.014335   0.263311  -0.245725  -0.283105   0.026753
   33  C  7  X   -0.004290  -0.047185   0.029242   0.020265   0.013670
   34  C  7  Y    0.000764   0.026598  -0.006533   0.025828   0.041520
   35  C  7  Z   -0.005263  -0.011536   0.049745   0.072219   0.122855
   36  C  8  S   -0.021743  -0.081436   0.091461   0.105512   0.086834
   37  C  8  S    0.052868   0.204550  -0.237293  -0.279812  -0.235814
   38  C  8  X   -0.023121   0.007502  -0.020276  -0.043125   0.027834
   39  C  8  Y    0.014497   0.019294  -0.012527   0.009485  -0.017449
   40  C  8  Z   -0.004641   0.059857  -0.054516  -0.060066   0.001545
   41  C  9  S   -0.127580  -0.035761   0.022137  -0.008456   0.070163
   42  C  9  S    0.295699   0.099332  -0.063433   0.023660  -0.207153
   43  C  9  X   -0.072134   0.039583  -0.053273  -0.061322  -0.049362
   44  C  9  Y   -0.005019   0.003448   0.020424   0.068686  -0.000485
   45  C  9  Z   -0.135540   0.082681  -0.023558   0.048422  -0.112214
   46  O 10  S   -0.214497   0.038240  -0.015262   0.006404  -0.049558
   47  O 10  S    0.749421  -0.142714   0.058501  -0.025035   0.198081
   48  O 10  X    0.076879  -0.003972  -0.008553  -0.016168  -0.007843
   49  O 10  Y    0.004493   0.000288   0.004290   0.017694  -0.000257
   50  O 10  Z    0.147098  -0.005464   0.002182   0.010191  -0.023566
   51  H 11  S    0.000185   0.028692   0.060129  -0.048137   0.070694
   52  H 12  S    0.000422   0.037075   0.059973  -0.057600   0.064822
   53  H 13  S    0.000306   0.028994   0.087663  -0.042348  -0.008043
   54  H 14  S    0.003454   0.031866   0.071641  -0.011794  -0.082284
   55  H 15  S    0.001283   0.025214   0.068227  -0.006580  -0.078882
   56  H 16  S    0.008817   0.040038   0.010976   0.089839  -0.070787
   57  H 17  S    0.001521   0.051063  -0.000176   0.088603   0.040583
   58  H 18  S    0.000820   0.055680  -0.016063   0.008942   0.119139
   59  H 19  S    0.001622   0.049414  -0.055413  -0.078123   0.014389
   60  H 20  S    0.008802   0.035060  -0.052352  -0.075054  -0.064710

                     16         17         18         19         20
                   -0.8550    -0.7742    -0.7531    -0.7105    -0.6556
                     A          A          A          A          A   
    1  C  1  S   -0.132753   0.035935  -0.009393   0.068965   0.004024
    2  C  1  S    0.385063  -0.111654   0.033935  -0.220741  -0.011420
    3  C  1  X   -0.019500  -0.078020   0.071669  -0.149963   0.053453
    4  C  1  Y   -0.033329   0.056563  -0.011229   0.127423   0.049934
    5  C  1  Z    0.041461   0.005999  -0.012295  -0.000924   0.127270
    6  C  2  S   -0.000764  -0.055336   0.046532  -0.115120  -0.004080
    7  C  2  S    0.002092   0.165212  -0.140813   0.355059   0.015600
    8  C  2  X    0.146230  -0.026634   0.001206  -0.049680  -0.060020
    9  C  2  Y   -0.047662   0.031680  -0.025751   0.098899   0.074514
   10  C  2  Z    0.119333   0.016541  -0.045740   0.100637   0.098694
   11  C  3  S    0.132107   0.014109  -0.036898   0.067786   0.001459
   12  C  3  S   -0.383314  -0.048151   0.114150  -0.217343  -0.003277
   13  C  3  X    0.046344   0.011266  -0.018647   0.064417  -0.102802
   14  C  3  Y    0.022235  -0.007922  -0.043639   0.049869   0.087390
   15  C  3  Z   -0.016699   0.091300  -0.077661   0.172039  -0.003576
   16  C  4  S   -0.062510   0.081793   0.041375  -0.015603  -0.028200
   17  C  4  S    0.180606  -0.253411  -0.121169   0.049816   0.097396
   18  C  4  X    0.042754   0.080627   0.012677   0.034058  -0.176199
   19  C  4  Y    0.015235   0.008463  -0.151191  -0.043595   0.112163
   20  C  4  Z   -0.051552   0.117756  -0.124826  -0.111807  -0.090238
   21  C  5  S    0.006563  -0.095485   0.057781   0.047482   0.026672
   22  C  5  S   -0.018882   0.283234  -0.175355  -0.145282  -0.080789
   23  C  5  X   -0.068714   0.042074   0.136296   0.054811  -0.005942
   24  C  5  Y    0.022416   0.016446  -0.094322  -0.059231   0.132615
   25  C  5  Z   -0.059045   0.093147   0.043642  -0.057339   0.095622
   26  C  6  S    0.071524   0.007694  -0.084266  -0.031711  -0.032985
   27  C  6  S   -0.206965  -0.028981   0.259988   0.098686   0.110879
   28  C  6  X   -0.049534  -0.116623   0.031517   0.069313   0.174749
   29  C  6  Y   -0.023262   0.161472   0.021349  -0.024803   0.042559
   30  C  6  Z    0.032602   0.021056   0.053272  -0.050808   0.233734
   31  C  7  S    0.052003   0.081139   0.082626  -0.019673   0.026249
   32  C  7  S   -0.151045  -0.246698  -0.244743   0.062713  -0.080046
   33  C  7  X   -0.023113  -0.061652  -0.081962   0.001725   0.148130
   34  C  7  Y   -0.024396   0.010343   0.101577   0.069214  -0.066424
   35  C  7  Z   -0.059728  -0.127110   0.103682   0.080727   0.034273
   36  C  8  S   -0.036958  -0.088601  -0.001479   0.039501  -0.032411
   37  C  8  S    0.106537   0.263453   0.016020  -0.118989   0.113904
   38  C  8  X   -0.055198  -0.043278  -0.193715  -0.054343   0.040132
   39  C  8  Y    0.020775  -0.005984   0.086093   0.080950  -0.094410
   40  C  8  Z   -0.040547  -0.109624  -0.105479   0.042278  -0.199197
   41  C  9  S   -0.062141  -0.000512  -0.107375  -0.051597  -0.014044
   42  C  9  S    0.189393   0.001186   0.343349   0.167527   0.044907
   43  C  9  X    0.044994   0.156781   0.080990  -0.016810  -0.009288
   44  C  9  Y    0.016914  -0.129639  -0.051364   0.074560   0.000012
   45  C  9  Z    0.078646  -0.074919   0.086245   0.065060  -0.058118
   46  O 10  S    0.036105  -0.001262   0.058957   0.023319   0.029168
   47  O 10  S   -0.149823   0.005718  -0.258978  -0.104694  -0.139365
   48  O 10  X    0.019364   0.076691   0.067332   0.003390   0.049539
   49  O 10  Y    0.006429  -0.065092  -0.025220   0.045005   0.003201
   50  O 10  Z    0.030707  -0.039916   0.093152   0.064217   0.068418
   51  H 11  S    0.143537  -0.053842   0.022800  -0.121317   0.100442
   52  H 12  S    0.122411  -0.091269   0.032235  -0.183316  -0.074246
   53  H 13  S    0.000492   0.085895  -0.083293   0.236769   0.105182
   54  H 14  S   -0.119917  -0.050019   0.100608  -0.174474  -0.063059
   55  H 15  S   -0.142592  -0.032282   0.045636  -0.121659   0.094334
   56  H 16  S    0.054688  -0.139333  -0.095826   0.001025   0.195692
   57  H 17  S   -0.009169   0.143511  -0.110944  -0.115451   0.078718
   58  H 18  S   -0.075643  -0.027033   0.138643   0.039348   0.260313
   59  H 19  S   -0.060619  -0.142233  -0.155831   0.013181   0.080801
   60  H 20  S    0.034304   0.139451  -0.022094  -0.111475   0.195631

                     21         22         23         24         25
                   -0.6060    -0.5917    -0.5868    -0.5546    -0.5419
                     A          A          A          A          A   
    1  C  1  S   -0.015518  -0.007151   0.001096  -0.000316   0.004286
    2  C  1  S    0.055510   0.020220   0.001492   0.002830  -0.022773
    3  C  1  X    0.137254   0.023650   0.126651   0.048990  -0.163638
    4  C  1  Y    0.025151  -0.038682  -0.102752  -0.169679   0.147755
    5  C  1  Z    0.253471   0.132684  -0.059296  -0.184291   0.122921
    6  C  2  S    0.027095   0.005963   0.004758  -0.012579  -0.007387
    7  C  2  S   -0.083033  -0.016329  -0.014695   0.041385   0.023946
    8  C  2  X   -0.112326  -0.053511  -0.124348  -0.099367   0.157255
    9  C  2  Y    0.116575  -0.001994   0.056052  -0.029629  -0.072185
   10  C  2  Z    0.192392   0.101741  -0.052421  -0.114799   0.102307
   11  C  3  S   -0.014158  -0.009103  -0.004529   0.004197   0.001651
   12  C  3  S    0.051100   0.029060   0.011859  -0.023744  -0.001132
   13  C  3  X   -0.255293  -0.102455  -0.078155  -0.050167   0.095879
   14  C  3  Y    0.150317  -0.038538   0.107722   0.042733  -0.161709
   15  C  3  Z   -0.062394  -0.061014   0.139247   0.179656  -0.202278
   16  C  4  S    0.001455   0.054906  -0.012240   0.020986  -0.006495
   17  C  4  S   -0.007473  -0.185625   0.036805  -0.072036   0.021583
   18  C  4  X    0.007837   0.112135   0.071775  -0.163747  -0.097086
   19  C  4  Y   -0.002417  -0.090408   0.123690   0.138476   0.127377
   20  C  4  Z    0.015397  -0.048442   0.200311  -0.144584   0.055723
   21  C  5  S    0.005241  -0.055771  -0.000184   0.009399   0.017429
   22  C  5  S   -0.020189   0.190101  -0.000875  -0.026127  -0.056471
   23  C  5  X    0.037842   0.008091  -0.172790   0.047496  -0.102395
   24  C  5  Y   -0.085705   0.192429   0.017305   0.229001   0.179220
   25  C  5  Z   -0.049252   0.114821  -0.164417   0.154313   0.004011
   26  C  6  S   -0.003889   0.056291   0.007188   0.000608   0.005311
   27  C  6  S    0.011928  -0.196130  -0.019844  -0.000030  -0.014001
   28  C  6  X   -0.063840  -0.001732   0.087539   0.078022   0.179547
   29  C  6  Y    0.010950   0.032992  -0.201610  -0.005658  -0.090244
   30  C  6  Z   -0.078676  -0.034840  -0.086956   0.028006   0.029355
   31  C  7  S   -0.000731  -0.046263  -0.006310  -0.007858  -0.019779
   32  C  7  S   -0.008079   0.157042   0.040225   0.016219   0.065773
   33  C  7  X   -0.176890   0.164412   0.046887  -0.220555  -0.088476
   34  C  7  Y    0.101986  -0.089199   0.048709   0.094846   0.106527
   35  C  7  Z   -0.117654   0.037283   0.260858  -0.130554   0.021382
   36  C  8  S   -0.014228   0.049942   0.020015  -0.018410  -0.005398
   37  C  8  S    0.034827  -0.163033  -0.053543   0.052170   0.015871
   38  C  8  X    0.025245  -0.089262  -0.193636  -0.017383  -0.139875
   39  C  8  Y    0.068535   0.107603   0.072647   0.115459   0.146453
   40  C  8  Z    0.151137   0.091758  -0.151992   0.217340   0.112883
   41  C  9  S    0.033248  -0.086027  -0.007362  -0.011689   0.020771
   42  C  9  S   -0.113900   0.299738   0.022627   0.038542  -0.070831
   43  C  9  X    0.027172  -0.027424   0.245381   0.019147   0.170776
   44  C  9  Y    0.024075   0.004466  -0.162289   0.053741  -0.168403
   45  C  9  Z    0.047842  -0.026662  -0.118603  -0.035540   0.023806
   46  O 10  S   -0.034089   0.054696   0.002557   0.009701  -0.028574
   47  O 10  S    0.167502  -0.269472  -0.012368  -0.049453   0.147972
   48  O 10  X   -0.076168   0.107528   0.230673   0.005643   0.039911
   49  O 10  Y    0.020327   0.012834  -0.161137   0.082210  -0.162423
   50  O 10  Z   -0.118460   0.234922  -0.099725   0.056622  -0.208568
   51  H 11  S    0.248368   0.114466  -0.011006  -0.134128   0.045012
   52  H 12  S   -0.070941  -0.011028   0.128263   0.209612  -0.208471
   53  H 13  S    0.154339   0.069472   0.028209  -0.026783  -0.012878
   54  H 14  S   -0.075597   0.058635  -0.148323  -0.144851   0.233774
   55  H 15  S    0.255329   0.075458   0.086494   0.034756  -0.112984
   56  H 16  S   -0.002006  -0.186750   0.003614   0.174525   0.127963
   57  H 17  S   -0.085261   0.263919  -0.043422   0.210086   0.111678
   58  H 18  S   -0.065048  -0.101154  -0.048980   0.052869   0.098116
   59  H 19  S   -0.176781   0.230112   0.071903  -0.212596  -0.076577
   60  H 20  S   -0.086873  -0.209219  -0.025126  -0.169472  -0.176535

                     26         27         28         29         30
                   -0.5155    -0.5060    -0.4866    -0.4785    -0.4506
                     A          A          A          A          A   
    1  C  1  S   -0.010053  -0.008399   0.003775  -0.030593   0.007145
    2  C  1  S    0.036982   0.017051  -0.017630   0.106808  -0.025454
    3  C  1  X   -0.125537  -0.178817  -0.092445  -0.229686   0.123608
    4  C  1  Y    0.136967  -0.125569  -0.144686   0.143931  -0.055596
    5  C  1  Z   -0.083468   0.041615  -0.239854  -0.092791   0.141087
    6  C  2  S    0.009526  -0.017086  -0.007630   0.007281  -0.002193
    7  C  2  S   -0.033621   0.060559   0.032946  -0.032425   0.007483
    8  C  2  X    0.185609   0.021770   0.011085   0.289054  -0.140088
    9  C  2  Y    0.020896  -0.221203   0.012116  -0.093714   0.021701
   10  C  2  Z    0.104000   0.080131   0.308767  -0.087747  -0.122794
   11  C  3  S    0.009837  -0.002874   0.031989  -0.005319  -0.006834
   12  C  3  S   -0.026604   0.000471  -0.110475   0.023949   0.022068
   13  C  3  X   -0.073129  -0.165896  -0.161364  -0.184407   0.146627
   14  C  3  Y    0.107784  -0.183529   0.011810   0.249767  -0.055425
   15  C  3  Z   -0.149558  -0.050331  -0.227152   0.035453   0.124371
   16  C  4  S    0.011520   0.008587   0.001369  -0.000468   0.003674
   17  C  4  S   -0.035771  -0.042976  -0.004761   0.008662  -0.004411
   18  C  4  X   -0.250349   0.098324  -0.023193  -0.012225  -0.256539
   19  C  4  Y    0.082661   0.208004  -0.074800  -0.064000   0.038370
   20  C  4  Z    0.045841  -0.116355  -0.113247  -0.034330  -0.202651
   21  C  5  S    0.004797  -0.021117  -0.005586   0.007890  -0.000221
   22  C  5  S   -0.018941   0.074345   0.022277  -0.028151   0.000935
   23  C  5  X    0.037340   0.178767   0.068185   0.039099   0.289103
   24  C  5  Y   -0.108229   0.014275   0.059861  -0.048584  -0.095146
   25  C  5  Z    0.113029  -0.182742   0.076063   0.067687   0.190980
   26  C  6  S   -0.022077  -0.006621  -0.002812   0.011557  -0.004978
   27  C  6  S    0.082711   0.013534   0.006746  -0.043251   0.007860
   28  C  6  X   -0.203584   0.098717  -0.007659  -0.059266  -0.213714
   29  C  6  Y   -0.067740   0.122229  -0.015198   0.110159   0.177467
   30  C  6  Z   -0.178204  -0.213828  -0.073595   0.125509  -0.177717
   31  C  7  S   -0.019222   0.000891   0.011862   0.002249  -0.003219
   32  C  7  S    0.072346   0.001658  -0.030024  -0.011427   0.021412
   33  C  7  X   -0.106124   0.086108   0.015052   0.167501   0.144712
   34  C  7  Y    0.031418   0.191451  -0.043914  -0.085253  -0.033175
   35  C  7  Z    0.065437   0.023330   0.159902  -0.080691   0.066029
   36  C  8  S    0.010110   0.003956  -0.000975   0.003724   0.011151
   37  C  8  S   -0.036171  -0.009170   0.014304  -0.015833  -0.036051
   38  C  8  X   -0.002648   0.131378  -0.115443  -0.052326  -0.113522
   39  C  8  Y   -0.071733   0.082079  -0.083837   0.144461   0.064849
   40  C  8  Z   -0.001045  -0.159075  -0.111208   0.030425  -0.082674
   41  C  9  S   -0.006456   0.008417   0.007572  -0.014748   0.000398
   42  C  9  S    0.014414  -0.034057  -0.021396   0.057974   0.001191
   43  C  9  X   -0.125872   0.118963  -0.010461   0.190700   0.129459
   44  C  9  Y   -0.140945   0.227836  -0.081862   0.056160  -0.085112
   45  C  9  Z   -0.259230  -0.150799   0.241507   0.089215   0.097360
   46  O 10  S    0.055818   0.010000  -0.034661  -0.021388  -0.018420
   47  O 10  S   -0.297695  -0.053815   0.190522   0.119065   0.105920
   48  O 10  X    0.199788   0.152189  -0.246583   0.046305   0.013869
   49  O 10  Y   -0.107054   0.187574  -0.077490   0.019588  -0.140174
   50  O 10  Z    0.326277  -0.013039  -0.203216  -0.226490  -0.240229
   51  H 11  S   -0.102755  -0.021077  -0.270435  -0.110342   0.166529
   52  H 12  S   -0.067735   0.011867   0.217568  -0.091891  -0.010232
   53  H 13  S   -0.007989  -0.039140   0.239551  -0.251793  -0.015878
   54  H 14  S   -0.005989   0.094242   0.075884  -0.244330   0.002463
   55  H 15  S    0.109076   0.081508   0.114340   0.277004  -0.157159
   56  H 16  S    0.181630   0.079651  -0.000271  -0.014144   0.256836
   57  H 17  S   -0.031053  -0.085752   0.092950  -0.022037  -0.011856
   58  H 18  S   -0.223868  -0.056508  -0.065115   0.048970  -0.233171
   59  H 19  S   -0.052397  -0.023353   0.049693   0.163844   0.174663
   60  H 20  S    0.016296   0.105926   0.092423  -0.129462  -0.037463

                     31         32         33         34         35
                   -0.4448    -0.4166    -0.3568    -0.3143    -0.2712
                     A          A          A          A          A   
    1  C  1  S   -0.009222   0.002097  -0.005643  -0.000053   0.027307
    2  C  1  S    0.037949   0.006776   0.006851   0.000761  -0.131695
    3  C  1  X   -0.018135   0.175076  -0.013692  -0.008746  -0.197135
    4  C  1  Y    0.171161   0.137522  -0.164109   0.029544  -0.282277
    5  C  1  Z    0.098951  -0.145168  -0.007910   0.010273   0.194339
    6  C  2  S    0.002704   0.020826   0.012977  -0.003308  -0.006652
    7  C  2  S   -0.015277  -0.073849  -0.049576   0.010584   0.028363
    8  C  2  X    0.090455  -0.000666   0.070643   0.010716   0.003905
    9  C  2  Y   -0.005383   0.229823   0.141713  -0.003156  -0.126720
   10  C  2  Z   -0.148734   0.085951   0.029759  -0.016839   0.059353
   11  C  3  S   -0.014587  -0.005349  -0.011606  -0.002309  -0.012012
   12  C  3  S    0.052133   0.021637   0.066258   0.010740   0.071760
   13  C  3  X    0.006393   0.099055   0.213132  -0.004545   0.157870
   14  C  3  Y    0.071746  -0.042444   0.254596   0.022256   0.195869
   15  C  3  Z    0.104379  -0.167972  -0.123602   0.016610  -0.066039
   16  C  4  S    0.023864   0.008951  -0.015869  -0.031818  -0.012611
   17  C  4  S   -0.087558  -0.029135   0.085516   0.144784   0.069337
   18  C  4  X   -0.006470  -0.044493  -0.149183   0.114807  -0.174357
   19  C  4  Y   -0.081480  -0.025028  -0.265125  -0.181874  -0.187109
   20  C  4  Z   -0.099447  -0.011164   0.132022  -0.253778   0.198814
   21  C  5  S    0.004605   0.017120   0.011811   0.007292  -0.001799
   22  C  5  S   -0.007945  -0.063385  -0.041850  -0.023264   0.003343
   23  C  5  X   -0.053135  -0.090702  -0.022023   0.079596   0.023420
   24  C  5  Y    0.205360  -0.038102   0.024946   0.128815  -0.055853
   25  C  5  Z    0.110679   0.148067   0.081969   0.004128   0.067656
   26  C  6  S   -0.002381  -0.006456   0.018111  -0.001436   0.005908
   27  C  6  S    0.020081   0.037295  -0.078656   0.009201  -0.050594
   28  C  6  X    0.036537  -0.185108   0.186436   0.051443   0.176480
   29  C  6  Y   -0.276119  -0.144956   0.089671  -0.074324   0.161809
   30  C  6  Z   -0.206764   0.109430  -0.127425  -0.038121  -0.125195
   31  C  7  S   -0.009993   0.003077  -0.009186  -0.012260  -0.006449
   32  C  7  S    0.052079  -0.008956   0.036248   0.044398   0.025679
   33  C  7  X   -0.089056   0.005022   0.198147  -0.159128  -0.193542
   34  C  7  Y    0.174833  -0.042907   0.391439  -0.060475  -0.205233
   35  C  7  Z    0.277781  -0.001563  -0.116087   0.017970   0.148596
   36  C  8  S   -0.005653  -0.000668   0.006438   0.037099  -0.005665
   37  C  8  S    0.038475   0.002652  -0.027213  -0.165556   0.027874
   38  C  8  X   -0.022654   0.044090   0.264242   0.183567  -0.246734
   39  C  8  Y   -0.055306   0.100084   0.274005  -0.262472  -0.274970
   40  C  8  Z   -0.202759  -0.031869  -0.131876   0.079533   0.106552
   41  C  9  S   -0.002639  -0.002318   0.006957   0.001058   0.008999
   42  C  9  S    0.011153   0.012127  -0.025230  -0.002716  -0.037562
   43  C  9  X   -0.040624   0.259481  -0.048873  -0.107480   0.090994
   44  C  9  Y    0.122894   0.334694  -0.017445   0.154760   0.076155
   45  C  9  Z    0.125767  -0.112665  -0.009702   0.050981  -0.087547
   46  O 10  S   -0.011100  -0.002741   0.000767  -0.000306  -0.000257
   47  O 10  S    0.064544   0.016504  -0.006715   0.001535  -0.001258
   48  O 10  X   -0.257317   0.248658   0.057399   0.583745   0.142603
   49  O 10  Y    0.224110   0.385542  -0.113960  -0.431560   0.376830
   50  O 10  Z   -0.020672  -0.187581   0.001490  -0.293603  -0.061113
   51  H 11  S    0.110660  -0.078731  -0.008661   0.010945   0.072672
   52  H 12  S   -0.182794   0.044842   0.124412  -0.027633   0.031383
   53  H 13  S   -0.165060   0.173174   0.060655  -0.018771  -0.025305
   54  H 14  S   -0.103226   0.160351  -0.040406  -0.041105  -0.070003
   55  H 15  S    0.041823  -0.086447  -0.069304   0.016609  -0.049198
   56  H 16  S   -0.070201   0.000739  -0.103234  -0.110567  -0.042288
   57  H 17  S    0.248198   0.050291   0.069487   0.113910  -0.009411
   58  H 18  S   -0.190118  -0.068045   0.011909  -0.009169   0.080031
   59  H 19  S   -0.095024   0.022752  -0.058422  -0.116496  -0.009535
   60  H 20  S    0.203987  -0.017855   0.035681   0.120121  -0.000825

                     36         37         38         39         40
                   -0.2234     0.2067     0.2159     0.3540     0.3894
                     A          A          A          A          A   
    1  C  1  S   -0.025318   0.000471  -0.041469   0.031140  -0.030395
    2  C  1  S    0.090264  -0.028849   0.208735  -0.134106   0.159964
    3  C  1  X    0.091980  -0.112406   0.227923  -0.175233   0.240980
    4  C  1  Y    0.151323  -0.080581   0.286793  -0.366413   0.212315
    5  C  1  Z   -0.097196   0.048304  -0.193517   0.158989  -0.161951
    6  C  2  S    0.021709   0.018754  -0.007567  -0.001256  -0.007710
    7  C  2  S   -0.105110  -0.105444   0.043062   0.009052   0.057421
    8  C  2  X    0.252328   0.242498  -0.141829  -0.024749  -0.154916
    9  C  2  Y    0.467738   0.441737  -0.171202  -0.049497  -0.279626
   10  C  2  Z   -0.111683  -0.153119   0.030205   0.021028   0.086445
   11  C  3  S   -0.030064   0.025792   0.029774  -0.040287  -0.021917
   12  C  3  S    0.113652  -0.149909  -0.130303   0.184723   0.121944
   13  C  3  X    0.169797  -0.193306  -0.137508   0.298601   0.121602
   14  C  3  Y    0.192509  -0.248773  -0.134277   0.407649   0.137861
   15  C  3  Z   -0.086479   0.172277   0.053877  -0.144306  -0.166896
   16  C  4  S    0.031978   0.009155  -0.022292   0.051480  -0.008572
   17  C  4  S   -0.123867  -0.071925   0.097665  -0.249697   0.063696
   18  C  4  X    0.103199   0.147675  -0.152288   0.297925   0.021561
   19  C  4  Y    0.174881   0.154707  -0.184272   0.353875   0.051812
   20  C  4  Z   -0.090916  -0.065397   0.120298  -0.295635   0.014277
   21  C  5  S   -0.022673   0.019164  -0.006822   0.002372   0.020654
   22  C  5  S    0.107831  -0.108400   0.037453  -0.013703  -0.115173
   23  C  5  X    0.357905  -0.387312   0.094159  -0.066846  -0.071940
   24  C  5  Y    0.243765  -0.302192   0.128040   0.021153  -0.041118
   25  C  5  Z   -0.342956   0.333714  -0.155003  -0.029093   0.114843
   26  C  6  S    0.030045   0.019807   0.009492  -0.053898   0.006554
   27  C  6  S   -0.119074  -0.111360  -0.017284   0.270030  -0.014067
   28  C  6  X    0.175088   0.167865   0.063293  -0.347268   0.120635
   29  C  6  Y    0.177829   0.239407   0.025959  -0.298026   0.144819
   30  C  6  Z   -0.117111  -0.163863  -0.033172   0.258639  -0.083178
   31  C  7  S    0.008319  -0.015187   0.009056   0.001353  -0.000995
   32  C  7  S   -0.034233   0.073506  -0.042290  -0.008487   0.007845
   33  C  7  X   -0.027778   0.110763   0.277424   0.241593   0.225331
   34  C  7  Y   -0.094551   0.241629   0.317139   0.314134   0.285688
   35  C  7  Z    0.000195  -0.013795  -0.194224  -0.146880  -0.127929
   36  C  8  S   -0.004766   0.007495  -0.002925  -0.001410  -0.002307
   37  C  8  S    0.021409  -0.033499   0.013118   0.008374   0.012998
   38  C  8  X   -0.126640  -0.154223  -0.165230  -0.129558  -0.316564
   39  C  8  Y   -0.113998  -0.250864  -0.229925  -0.196049  -0.452429
   40  C  8  Z    0.054059   0.099837   0.096889   0.081581   0.182077
   41  C  9  S    0.009038  -0.018639   0.003405  -0.001759  -0.000275
   42  C  9  S   -0.038315   0.089414  -0.018381   0.011678   0.003419
   43  C  9  X    0.030641  -0.089871  -0.229005  -0.123886   0.336709
   44  C  9  Y   -0.039836   0.015036  -0.360395  -0.172738   0.466437
   45  C  9  Z   -0.047274   0.102092   0.125756   0.063786  -0.196508
   46  O 10  S   -0.000120   0.002086  -0.000906   0.001450   0.000128
   47  O 10  S   -0.001297  -0.009067   0.004987  -0.009497  -0.001439
   48  O 10  X   -0.059577   0.082644   0.284595   0.090330  -0.245506
   49  O 10  Y    0.058135   0.031603   0.413880   0.130874  -0.334551
   50  O 10  Z    0.045389  -0.070537  -0.153576  -0.069607   0.136273
   51  H 11  S    0.002698   0.044977  -0.056602  -0.011861  -0.037134
   52  H 12  S    0.072351   0.130733  -0.060955  -0.066925  -0.071149
   53  H 13  S    0.047143   0.016162  -0.004496  -0.002168   0.010134
   54  H 14  S    0.060974   0.129127  -0.043942   0.032478  -0.079874
   55  H 15  S   -0.003136   0.076812   0.005861   0.001321  -0.040105
   56  H 16  S    0.005895   0.067701   0.002777   0.019081  -0.091453
   57  H 17  S   -0.061096   0.020083  -0.006477  -0.002942   0.030494
   58  H 18  S    0.005129   0.054460  -0.068506  -0.057226  -0.086177
   59  H 19  S    0.023127  -0.030705   0.008691   0.006612  -0.017216
   60  H 20  S   -0.024820   0.041535  -0.022119  -0.013717  -0.016483

                     41         42         43         44         45
                    0.5165     0.5729     0.5898     0.6220     0.6227
                     A          A          A          A          A   
    1  C  1  S   -0.010598   0.024680   0.003106  -0.007586   0.036479
    2  C  1  S    0.037388  -0.159222  -0.018458   0.051173  -0.230214
    3  C  1  X    0.286976   0.010063   0.030364  -0.031064  -0.015121
    4  C  1  Y    0.310344  -0.068618  -0.146607  -0.049269  -0.181882
    5  C  1  Z   -0.197204  -0.246096  -0.166304  -0.040412  -0.352821
    6  C  2  S   -0.031066   0.020530   0.013941  -0.000729   0.042402
    7  C  2  S    0.194227  -0.127450  -0.087473   0.001597  -0.268070
    8  C  2  X   -0.159637   0.112558   0.091027  -0.051405   0.234910
    9  C  2  Y   -0.326518  -0.132540  -0.092382   0.004086  -0.220883
   10  C  2  Z    0.058339  -0.186484  -0.151846   0.000329  -0.374095
   11  C  3  S   -0.011484   0.013117   0.025907   0.027860   0.030970
   12  C  3  S    0.042007  -0.084631  -0.166013  -0.175136  -0.194729
   13  C  3  X    0.250008   0.178547   0.157612   0.005628   0.255294
   14  C  3  Y    0.337516  -0.172246  -0.063554   0.127333  -0.275456
   15  C  3  Z   -0.227862  -0.124946  -0.042448   0.087120  -0.145292
   16  C  4  S    0.043423  -0.000288   0.047352   0.111483  -0.010273
   17  C  4  S   -0.230133  -0.020689  -0.290663  -0.655621   0.075706
   18  C  4  X    0.308879   0.209709   0.115901  -0.202735  -0.183027
   19  C  4  Y    0.382794  -0.301807  -0.101502   0.151754   0.168757
   20  C  4  Z   -0.149220  -0.191151   0.103676   0.509795   0.104470
   21  C  5  S    0.010258   0.043931   0.019023   0.002462  -0.050085
   22  C  5  S   -0.078857  -0.274495  -0.121437  -0.020176   0.314967
   23  C  5  X   -0.266816   0.039862   0.019897  -0.030832  -0.014676
   24  C  5  Y   -0.178258  -0.264841  -0.185065   0.150646   0.286504
   25  C  5  Z    0.236340  -0.208079  -0.067096  -0.129709   0.172711
   26  C  6  S    0.040369   0.055071  -0.065055  -0.015338   0.006473
   27  C  6  S   -0.213866  -0.347926   0.377591   0.089208  -0.023803
   28  C  6  X    0.219606  -0.217940   0.244181  -0.146975  -0.012113
   29  C  6  Y    0.399350  -0.115646  -0.260080  -0.043231   0.145497
   30  C  6  Z   -0.232718  -0.244402  -0.309789  -0.160089   0.307059
   31  C  7  S   -0.015741   0.050686   0.021198   0.051287  -0.048309
   32  C  7  S    0.089706  -0.309295  -0.113569  -0.343090   0.288267
   33  C  7  X   -0.212244  -0.219347   0.356552  -0.181714  -0.002184
   34  C  7  Y   -0.183033   0.168462  -0.422507   0.110351   0.081958
   35  C  7  Z    0.154135  -0.113598  -0.231838  -0.145028   0.189231
   36  C  8  S    0.014593  -0.010842   0.023348   0.111060   0.000288
   37  C  8  S   -0.085014   0.041443  -0.120269  -0.683368   0.002779
   38  C  8  X    0.155623  -0.231428   0.466341   0.108152  -0.075559
   39  C  8  Y    0.240780   0.141085  -0.341789   0.035567   0.061598
   40  C  8  Z   -0.079481   0.040199  -0.090469   0.392243   0.032286
   41  C  9  S   -0.017903   0.090808  -0.088989  -0.128747  -0.018664
   42  C  9  S    0.102321  -0.535336   0.525757   0.757220   0.107791
   43  C  9  X   -0.221960  -0.000576   0.317476   0.069206  -0.130318
   44  C  9  Y   -0.208093  -0.034976  -0.209582   0.216032   0.116636
   45  C  9  Z    0.164912  -0.132276   0.040352   0.408806   0.085085
   46  O 10  S    0.002663  -0.018910   0.013328   0.007189   0.003879
   47  O 10  S   -0.015605   0.118460  -0.079593  -0.029322  -0.025302
   48  O 10  X    0.109599   0.059718  -0.128027   0.009607   0.023398
   49  O 10  Y    0.124462   0.009784   0.061594  -0.074170  -0.036744
   50  O 10  Z   -0.088446   0.164509  -0.067372  -0.058425  -0.053555
   51  H 11  S    0.069061   0.309093   0.174674   0.021112   0.463780
   52  H 12  S   -0.001919  -0.125769  -0.220032  -0.078092  -0.241135
   53  H 13  S   -0.041901   0.347839   0.258844  -0.030146   0.652075
   54  H 14  S   -0.011359  -0.215476  -0.043249   0.224793  -0.278420
   55  H 15  S    0.066297   0.273417   0.251942   0.034932   0.439617
   56  H 16  S    0.032691   0.311220   0.348900   0.244038  -0.261964
   57  H 17  S   -0.021334   0.517987   0.274460  -0.057196  -0.517416
   58  H 18  S    0.053226   0.538486  -0.087419   0.171770  -0.235226
   59  H 19  S   -0.003924   0.483209  -0.424562   0.398888  -0.138435
   60  H 20  S    0.085803   0.166022  -0.390596   0.656330   0.100543

                     46         47         48         49         50
                    0.6647     0.6976     0.7143     0.7259     0.7411
                     A          A          A          A          A   
    1  C  1  S    0.034347  -0.116292  -0.026807   0.126739  -0.066368
    2  C  1  S   -0.215441   0.739530   0.162190  -0.810977   0.418830
    3  C  1  X    0.059426   0.193719  -0.228366   0.027852   0.260191
    4  C  1  Y    0.176641  -0.247872  -0.015526   0.402388  -0.188134
    5  C  1  Z    0.204651   0.287114  -0.228559   0.355889   0.126042
    6  C  2  S   -0.010934   0.070761   0.062480  -0.014069  -0.006880
    7  C  2  S    0.064188  -0.431620  -0.387909   0.087223   0.069319
    8  C  2  X    0.067232   0.119250  -0.056271   0.275279   0.053120
    9  C  2  Y   -0.035345  -0.015257   0.013376  -0.086093   0.043511
   10  C  2  Z    0.125275   0.020873  -0.069325   0.220574   0.027999
   11  C  3  S    0.001807  -0.088390  -0.122610  -0.090346  -0.067002
   12  C  3  S   -0.012144   0.553478   0.786205   0.581778   0.421805
   13  C  3  X    0.195797   0.088001  -0.434391   0.237295  -0.042381
   14  C  3  Y   -0.115070  -0.266169  -0.033021  -0.434699  -0.152072
   15  C  3  Z    0.045888  -0.023951  -0.193817  -0.172409  -0.233594
   16  C  4  S    0.013365  -0.024167  -0.045389   0.025179   0.130890
   17  C  4  S   -0.091393   0.153937   0.300499  -0.141424  -0.818076
   18  C  4  X    0.425926   0.240992  -0.051788  -0.147400  -0.124583
   19  C  4  Y   -0.307039   0.045743   0.186351   0.151788  -0.163656
   20  C  4  Z    0.164569   0.099663  -0.081394   0.001583  -0.073534
   21  C  5  S    0.000211   0.055974   0.046813   0.001664  -0.146751
   22  C  5  S   -0.008636  -0.353288  -0.306188  -0.007224   0.935496
   23  C  5  X    0.300653   0.027302  -0.002740  -0.132390  -0.105743
   24  C  5  Y   -0.087065   0.009826   0.025033   0.083262  -0.117339
   25  C  5  Z    0.107878   0.113020  -0.042586  -0.074942  -0.005697
   26  C  6  S    0.080169  -0.079924   0.031141  -0.051546   0.115949
   27  C  6  S   -0.479307   0.509619  -0.192198   0.304904  -0.728479
   28  C  6  X   -0.026636   0.318876  -0.319478  -0.046467  -0.040000
   29  C  6  Y    0.089334   0.126043   0.151539  -0.092553  -0.249107
   30  C  6  Z    0.477763   0.115875  -0.105953  -0.165420  -0.126884
   31  C  7  S   -0.120839   0.061876  -0.085972   0.052966  -0.025994
   32  C  7  S    0.744650  -0.409329   0.547858  -0.325526   0.160456
   33  C  7  X    0.097928  -0.126719  -0.012258  -0.000441   0.113765
   34  C  7  Y    0.125468  -0.055440  -0.030801   0.010508   0.004106
   35  C  7  Z    0.249532  -0.018391  -0.075412  -0.171089   0.155063
   36  C  8  S    0.091385  -0.004051   0.106812  -0.003577  -0.043176
   37  C  8  S   -0.551672   0.012177  -0.682656   0.018926   0.287722
   38  C  8  X    0.016883   0.016890   0.076039   0.078838  -0.052694
   39  C  8  Y    0.008072   0.142623  -0.064192  -0.078897  -0.034502
   40  C  8  Z    0.160097   0.205524  -0.032884  -0.002985  -0.089326
   41  C  9  S    0.005041   0.028099  -0.048524  -0.040359  -0.024024
   42  C  9  S   -0.042628  -0.182882   0.292728   0.242825   0.143485
   43  C  9  X    0.305580   0.028785   0.245539  -0.046665  -0.235916
   44  C  9  Y   -0.173688  -0.077304  -0.296141   0.002855   0.223099
   45  C  9  Z    0.049945   0.132128  -0.071146   0.078883   0.083632
   46  O 10  S   -0.017008  -0.020921   0.011295   0.007649   0.010144
   47  O 10  S    0.120869   0.143798  -0.074527  -0.050756  -0.069330
   48  O 10  X   -0.000903   0.091568  -0.114176  -0.014216   0.025977
   49  O 10  Y    0.056674   0.033870   0.092332  -0.004869  -0.076777
   50  O 10  Z    0.176090   0.150074  -0.053676  -0.072072  -0.106084
   51  H 11  S   -0.112485  -0.651705   0.182455   0.042633  -0.387924
   52  H 12  S    0.322817  -0.425922  -0.128796   0.860235  -0.323306
   53  H 13  S   -0.083343   0.285380   0.225696  -0.044251  -0.021876
   54  H 14  S   -0.088816  -0.457730  -0.429904  -0.737070  -0.416261
   55  H 15  S    0.220438  -0.091584  -0.733812   0.089494  -0.202332
   56  H 16  S    0.581494   0.083412  -0.285422  -0.112977   0.403446
   57  H 17  S    0.041570   0.117097   0.148306  -0.032108  -0.392758
   58  H 18  S   -0.089020  -0.534453   0.327546  -0.001736   0.513358
   59  H 19  S   -0.468232   0.289057  -0.261278   0.173298  -0.188400
   60  H 20  S    0.420475   0.199143   0.256538  -0.082476  -0.185486

                     51         52         53         54         55
                    0.7566     0.7867     0.8227     0.8763     0.8828
                     A          A          A          A          A   
    1  C  1  S    0.067857   0.037198  -0.025604   0.010238   0.023102
    2  C  1  S   -0.438395  -0.232713   0.159074  -0.071415  -0.168291
    3  C  1  X   -0.254055   0.407993  -0.288780   0.000144   0.199562
    4  C  1  Y    0.049995  -0.366521   0.292999   0.098628  -0.068145
    5  C  1  Z   -0.427347  -0.101049   0.065390   0.125860  -0.072339
    6  C  2  S   -0.024372  -0.164950   0.110710   0.012982   0.001692
    7  C  2  S    0.160501   1.091976  -0.740660  -0.088165  -0.011734
    8  C  2  X   -0.072341   0.083373  -0.079546   0.072470   0.277380
    9  C  2  Y    0.061310   0.277580  -0.192819  -0.130642  -0.090042
   10  C  2  Z   -0.055533  -0.016636   0.019367  -0.143944   0.257486
   11  C  3  S   -0.056041   0.053329  -0.020922   0.006648  -0.023399
   12  C  3  S    0.360597  -0.335020   0.131403  -0.052557   0.168568
   13  C  3  X   -0.465587  -0.077680   0.062857  -0.031663   0.018107
   14  C  3  Y    0.146969  -0.185879   0.175586   0.100837   0.014290
   15  C  3  Z   -0.278760  -0.475973   0.386877   0.037562   0.242760
   16  C  4  S    0.054507  -0.053886  -0.012690   0.033126  -0.082836
   17  C  4  S   -0.344702   0.339390   0.082862  -0.235408   0.574939
   18  C  4  X    0.255979  -0.063396   0.071546  -0.449700  -0.008026
   19  C  4  Y   -0.178696  -0.066107  -0.241503   0.076636   0.506295
   20  C  4  Z    0.129611  -0.322829  -0.440843  -0.370146   0.255576
   21  C  5  S   -0.033038  -0.046113  -0.118342  -0.058191   0.003360
[...]
 18   H            X  0.03462958 -0.01566518  0.02634165  0.03947187  0.00790499
                   Y -0.02578937 -0.00413268  0.02188589 -0.04886910 -0.00639844
                   Z -0.10789748  0.01459163  0.01375321 -0.07445227 -0.01731119
 19   H            X  0.00348324 -0.00015059  0.00244409  0.09495556  0.02162032
                   Y -0.03428882  0.00171623  0.00430552 -0.10834443 -0.02248109
                   Z -0.06249153  0.00339946  0.02263432 -0.11002328 -0.02026126
 20   H            X -0.00510724 -0.00016049  0.00616749  0.09636286  0.07986757
                   Y  0.01235392  0.00107928 -0.01544246 -0.09529119 -0.04560873
                   Z  0.01104595 -0.00081705 -0.00165002 -0.03246582  0.03237308

 TRANS. SAYVETZ    X  0.00000279  0.00000089  0.00000266  0.00000237  0.00000053
                   Y -0.00000239  0.00000041 -0.00000355 -0.00000232 -0.00000195
                   Z  0.00000075  0.00000066  0.00000044  0.00000027  0.00000124
               TOTAL  0.00000375  0.00000118  0.00000445  0.00000333  0.00000237

   ROT. SAYVETZ    X -0.00002039  0.00020060  0.00002396  0.00003243 -0.00000719
                   Y  0.00008137  0.00010623 -0.00006947  0.00002780 -0.00000994
                   Z  0.00007399  0.00005913 -0.00009922  0.00000617 -0.00000015
               TOTAL  0.00011186  0.00023456  0.00012347  0.00004316  0.00001227

                           51          52          53          54          55
       FREQUENCY:      3630.07     3634.31     3686.09     3693.06     3695.66  
        SYMMETRY:         A           A           A           A           A   
    REDUCED MASS:      1.06267     1.06462     1.09101     1.09411     1.09590
    IR INTENSITY:      0.09886     0.07246     0.19347     0.04549     0.14153

  1   C            X -0.03838378 -0.02062632 -0.00455131 -0.00062495 -0.00778922
                   Y  0.04036802  0.02275659  0.00452088  0.00181607  0.00768990
                   Z -0.02212332 -0.01199997 -0.00063074  0.00059715  0.00124630
  2   C            X -0.00092401  0.00582556  0.00748155  0.00405823  0.03392954
                   Y  0.00610280 -0.00357105 -0.00961267 -0.00544852 -0.04395457
                   Z  0.00682640  0.00251412 -0.01276702 -0.00758896 -0.05840756
  3   C            X  0.01957170 -0.03794653  0.00222652  0.00115351  0.00190086
                   Y  0.00893802 -0.01873778  0.00285529 -0.00015396  0.00465176
                   Z  0.02278411 -0.04376893  0.00546961  0.00224767  0.00976254
  4   C            X -0.00197887  0.00154968  0.03899927 -0.03696439 -0.00747512
                   Y  0.00248319 -0.00014395 -0.03973251  0.03587228  0.00638380
                   Z -0.00056544  0.00057682  0.01440849 -0.01537468 -0.00297994
  5   C            X  0.00067388 -0.00058291 -0.00874225  0.00245007 -0.00005552
                   Y -0.00278238  0.00103259  0.03107165  0.00452110 -0.00093839
                   Z -0.00237278  0.00047816  0.02454118  0.00766091 -0.00106430
  6   C            X  0.00207638 -0.00049386 -0.02530492 -0.04135862  0.01345697
                   Y  0.00060126 -0.00119110 -0.00956508 -0.01270752  0.00323790
                   Z  0.00244748 -0.00022527 -0.02801360 -0.04314419  0.01416131
  7   C            X -0.00068962 -0.00000532  0.00630901  0.01382490 -0.00652650
                   Y -0.00007217 -0.00004474 -0.00352072 -0.00788967  0.00385469
                   Z  0.00011263  0.00012104  0.00275280  0.00534501 -0.00227973
  8   C            X  0.00013892  0.00000796 -0.00170023 -0.00379809  0.00168057
                   Y -0.00034110  0.00004126  0.00192322  0.00475790 -0.00208321
                   Z -0.00036519  0.00019384  0.00218945  0.00546021 -0.00230090
  9   C            X -0.00011011  0.00010604 -0.00067223  0.00103183  0.00004733
                   Y -0.00033952  0.00021422  0.00072108 -0.00112446 -0.00004183
                   Z  0.00001604 -0.00019072  0.00080859 -0.00108902 -0.00015219
 10   O            X -0.00000254  0.00002326  0.00002969 -0.00005854 -0.00000170
                   Y  0.00001340  0.00002268 -0.00005564  0.00012899 -0.00000284
                   Z -0.00001085  0.00002939 -0.00004611  0.00019308  0.00004263
 11   H            X  0.21246210  0.11430481  0.01611878  0.00252533  0.01282572
                   Y  0.01019500  0.00596636  0.00173132  0.00017776  0.00117972
                   Z  0.56162118  0.30171112  0.03761643  0.00490484  0.02847583
 12   H            X  0.18781235  0.10224703  0.02034173  0.00671994  0.02682141
                   Y -0.46546923 -0.25472913 -0.04607006 -0.01713279 -0.07164660
                   Z -0.31628454 -0.17163191 -0.03354510 -0.01188777 -0.04977348
 13   H            X  0.05847709 -0.01515000 -0.07893514 -0.04608398 -0.36659260
                   Y -0.08138914  0.02367962  0.11150380  0.06460965  0.51324354
                   Z -0.10150197  0.03238888  0.13960141  0.08131715  0.64636880
 14   H            X  0.06603312 -0.12487309  0.01501397  0.00324676  0.02029332
                   Y -0.23069693  0.44445411 -0.04578731 -0.01041338 -0.06829702
                   Z -0.21071059  0.40528314 -0.04411592 -0.00964273 -0.05958021
 15   H            X -0.28511132  0.53980456 -0.03342016 -0.01135399 -0.02339469
                   Y  0.11869201 -0.22551693  0.01560809  0.00554017  0.01107852
                   Z -0.03138217  0.05937413 -0.00491690 -0.00172906 -0.00433210
 16   H            X  0.02478200 -0.00746421 -0.43781477  0.40437618  0.07602299
                   Y -0.02834703  0.00863949  0.45290900 -0.41592816 -0.07702490
                   Z  0.01105405 -0.00346754 -0.17565175  0.16257124  0.03009286
 17   H            X -0.00877734  0.00284290  0.09051569  0.01559345 -0.00414058
                   Y  0.03321536 -0.01049953 -0.36424650 -0.06638196  0.01702299
                   Z  0.02706379 -0.00846020 -0.29017390 -0.05423459  0.01361797
 18   H            X -0.02644734  0.00936442  0.30005292  0.46486181 -0.14756679
                   Y -0.00998768  0.00378755  0.10329696  0.15796363 -0.04922948
                   Z -0.02571832  0.00899869  0.31303712  0.48489769 -0.15477368
 19   H            X  0.00645681 -0.00084574 -0.07264057 -0.15830045  0.07379911
                   Y -0.00453611  0.00047679  0.04635001  0.10025265 -0.04682047
                   Z  0.00123473 -0.00043276 -0.01873037 -0.04058805  0.01896944
 20   H            X -0.00196994  0.00052923  0.01305886  0.03646301 -0.01534991
                   Y  0.00373516 -0.00085728 -0.02033345 -0.05462277  0.02296252
                   Z  0.00430591 -0.00149155 -0.02667768 -0.07231686  0.03051789

 TRANS. SAYVETZ    X -0.00000030  0.00000095 -0.00000134  0.00000018  0.00000027
                   Y  0.00000105  0.00000030  0.00000052  0.00000058 -0.00000031
                   Z -0.00000063  0.00000047  0.00000069  0.00000026  0.00000089
               TOTAL  0.00000126  0.00000110  0.00000160  0.00000066  0.00000098

   ROT. SAYVETZ    X  0.00002813 -0.00000417 -0.00000861 -0.00001689  0.00000915
                   Y -0.00001082 -0.00000663 -0.00000221  0.00002933 -0.00000567
                   Z  0.00000662 -0.00003409 -0.00001792  0.00002354  0.00000489
               TOTAL  0.00003086  0.00003498  0.00002000  0.00004122  0.00001183

                           56          57          58          59          60
       FREQUENCY:      3704.05     3712.80     3736.28     3777.40     3780.00  
        SYMMETRY:         A           A           A           A           A   
    REDUCED MASS:      1.09133     1.10022     1.10603     1.11642     1.11674
    IR INTENSITY:      0.55027     0.10235     0.06836     0.00320     0.01482

  1   C            X  0.00065096  0.00019496 -0.00001231 -0.00270048  0.00136195
                   Y  0.00004005  0.00130995 -0.00024567 -0.04242021  0.01504405
                   Z  0.00061684  0.00150336 -0.00034632 -0.07749547  0.02827602
  2   C            X -0.00245292  0.00381701 -0.00002199  0.00179530 -0.00199826
                   Y  0.00292192 -0.00449698  0.00002318 -0.00138742  0.00253226
                   Z  0.00391819 -0.00637981  0.00006024 -0.00103590  0.00429599
  3   C            X  0.00002800 -0.00088928  0.00009031 -0.02174943 -0.06070252
                   Y -0.00050667  0.00154674 -0.00026285  0.02123696  0.05813801
                   Z -0.00030443  0.00053224 -0.00019110  0.01024527  0.02736745
  4   C            X -0.00659398  0.02092955 -0.00184965 -0.00007239 -0.00035898
                   Y  0.00583130 -0.01670101  0.00152602 -0.00007736  0.00063211
                   Z -0.00314979  0.01035607 -0.00069597 -0.00006983 -0.00052691
  5   C            X -0.00169127  0.01235139 -0.00086464  0.00017196 -0.00009257
                   Y  0.01174106 -0.05751982  0.00390998 -0.00037297  0.00063985
                   Z  0.00999741 -0.04271687  0.00292275 -0.00019621  0.00043732
  6   C            X -0.00923391 -0.02525472  0.00253906 -0.00070064  0.00069280
                   Y -0.00524687 -0.00397188  0.00172925 -0.00009618  0.00022292
                   Z -0.01254896 -0.02536527  0.00457718 -0.00022550  0.00037919
  7   C            X -0.05632534 -0.00448277  0.04039039 -0.00042682  0.00032000
                   Y  0.03560138  0.00352086 -0.02241343  0.00049620 -0.00027726
                   Z -0.01373641  0.00055385  0.01701325 -0.00030193  0.00025302
  8   C            X  0.01797096  0.00380957  0.02215708  0.00007897 -0.00011321
                   Y -0.02382176 -0.00590881 -0.03925918  0.00002567 -0.00007922
                   Z -0.02845557 -0.00814591 -0.05961988 -0.00008169 -0.00011450
  9   C            X -0.00117086 -0.00047802 -0.00198379  0.00003399 -0.00007547
                   Y  0.00097733  0.00065962  0.00123293 -0.00007231 -0.00017992
                   Z  0.00028839  0.00087053 -0.00053372  0.00006008  0.00005432
 10   O            X  0.00010237 -0.00001138  0.00026018 -0.00001535 -0.00001946
                   Y -0.00012157 -0.00006440 -0.00011247 -0.00000035 -0.00002320
                   Z -0.00013301 -0.00017982  0.00020786 -0.00000544 -0.00000120
 11   H            X -0.00285138 -0.00393173  0.00074781  0.22203215 -0.08054726
                   Y -0.00023077 -0.00039790  0.00006411  0.00653408 -0.00265149
                   Z -0.00688287 -0.00959132  0.00238457  0.58406612 -0.21270618
 12   H            X  0.00000364  0.00382844 -0.00082132 -0.19768521  0.07108493
                   Y  0.00109271 -0.01165573  0.00334962  0.49451164 -0.17687071
                   Z  0.00027833 -0.00805918  0.00207148  0.32872623 -0.11774462
 13   H            X  0.02500876 -0.03975208  0.00008467 -0.01470552  0.02576230
                   Y -0.03479204  0.05539346 -0.00032811  0.01622190 -0.03434180
                   Z -0.04414217  0.06997594 -0.00038728  0.01809403 -0.04751339
 14   H            X -0.00145894  0.00310592 -0.00094299  0.04388344  0.11986669
                   Y  0.00402892 -0.01044511  0.00236130 -0.16210462 -0.44068064
                   Z  0.00345172 -0.00845719  0.00234167 -0.14677593 -0.40038679
 15   H            X  0.00005321  0.00859005 -0.00057674  0.21369364  0.59002975
                   Y -0.00000709 -0.00393504  0.00021487 -0.08761498 -0.24216754
                   Z -0.00014693  0.00126632 -0.00011979  0.02471374  0.06729995
 16   H            X  0.06775575 -0.20263601  0.01541793  0.00139230  0.00866334
                   Y -0.06968481  0.20627698 -0.01581172 -0.00150020 -0.00955094
                   Z  0.02689440 -0.08171679  0.00632804  0.00073839  0.00397947
 17   H            X  0.03211204 -0.14953836  0.00912431 -0.00097441  0.00159035
                   Y -0.13578923  0.61476640 -0.03930037  0.00349798 -0.00649115
                   Z -0.10768794  0.48572727 -0.03096312  0.00269523 -0.00528658
 18   H            X  0.12086376  0.25663864 -0.03530055  0.00832077 -0.00641063
                   Y  0.04302109  0.08523848 -0.01263079  0.00306565 -0.00233971
                   Z  0.12859433  0.26840023 -0.03846406  0.00792824 -0.00648890
 19   H            X  0.63858178  0.05119740 -0.41535905  0.00554411 -0.00374073
                   Y -0.40326334 -0.03252587  0.26122640 -0.00316766  0.00208226
                   Z  0.15670975  0.01139854 -0.10375376  0.00157363 -0.00096631
 20   H            X -0.18135283 -0.04636262 -0.29620511 -0.00061917 -0.00007513
                   Y  0.26966680  0.06944316  0.44274800  0.00046125  0.00045028
                   Z  0.36149292  0.09300256  0.59559652  0.00110228  0.00039917

 TRANS. SAYVETZ    X  0.00000043 -0.00000020  0.00000019  0.00000005 -0.00000006
                   Y -0.00000008  0.00000004 -0.00000014 -0.00000007  0.00000009
                   Z  0.00000001  0.00000025  0.00000031 -0.00000006  0.00000005
               TOTAL  0.00000044  0.00000032  0.00000039  0.00000010  0.00000012

   ROT. SAYVETZ    X  0.00000169 -0.00000777  0.00000334  0.00002353  0.00000902
                   Y  0.00002038  0.00001374 -0.00000645 -0.00001461 -0.00000551
                   Z  0.00001632 -0.00000445 -0.00000746 -0.00000818 -0.00000812
               TOTAL  0.00002617  0.00001640  0.00001041  0.00002888  0.00001333

 REFERENCE ON SAYVETZ CONDITIONS - A. SAYVETZ, J.CHEM.PHYS., 7, 383-389(1939).

 NOTE - THE MODES J,K ARE ORTHONORMALIZED ACCORDING TO
 SUM ON I   M(I) * (X(I,J)*X(I,K) + Y(I,J)*Y(I,K) + Z(I,J)*Z(I,K)) = DELTA(J,K)

  MODE FREQ(CM**-1)  SYMMETRY  RED. MASS  IR INTENS.
     1    1060.367    A        9.324606    0.064318
     2       0.186    A        6.770879    0.000084
     3       0.091    A        6.576011    0.000029
     4       0.016    A        6.697933    0.000000
     5       1.504    A        4.794280    0.013463
     6       5.028    A        4.928204    0.003850
     7       6.303    A        4.674090    0.011054
     8     104.141    A        4.138150    0.029762
     9     203.673    A        3.551289    0.016626
    10     265.243    A        4.167084    0.030702
    11     381.411    A        5.277165    0.035433
    12     437.613    A        2.307590    0.075456
    13     465.615    A        3.413593    0.109583
    14     493.049    A        3.992083    0.077136
    15     506.438    A        4.789632    0.105020
    16     552.685    A        1.961658    0.248720
    17     575.844    A        2.545800    0.264919
    18     610.979    A        4.901167    0.016010
    19     677.215    A        5.711192    0.076586
    20     840.261    A        3.287337    0.032997
    21     851.565    A        4.186256    0.032903
    22     926.857    A        1.667087    2.621654
    23     938.109    A        1.761268    0.121195
    24     964.341    A        1.772485    0.902781
    25    1004.121    A        1.456936    0.150436
    26    1040.444    A        1.586984    0.061876
    27    1092.366    A        1.590208    0.228100
    28    1119.736    A        2.732652    0.001835
    29    1166.737    A        2.141512    0.057036
    30    1209.134    A        1.282459    0.003082
    31    1214.216    A        1.508068    0.090248
    32    1240.835    A        1.141107    0.082569
    33    1270.217    A        1.287364    0.408541
    34    1301.612    A        1.134620    0.247660
    35    1318.495    A        1.219215    0.093682
    36    1341.284    A        1.231514    0.051303
    37    1365.532    A        1.156037    0.010771
    38    1386.068    A        1.275968    0.048819
    39    1418.709    A        1.831294    0.674021
    40    1471.057    A        1.323626    0.088126
    41    1488.627    A        1.670902    0.001694
    42    1599.388    A        1.598219    0.164868
    43    1637.161    A        1.712711    0.166605
    44    1668.013    A        1.524681    0.029338
    45    1718.728    A        2.486307    0.476466
    46    1758.373    A        1.912228    0.035440
    47    1813.503    A        1.256192    0.224290
    48    1856.577    A        2.349651    0.040075
    49    2009.742    A        7.078437    0.062071
    50    2080.648    A       10.638913    1.818384
    51    3630.074    A        1.062666    0.098856
    52    3634.313    A        1.064621    0.072457
    53    3686.088    A        1.091014    0.193475
    54    3693.059    A        1.094113    0.045486
    55    3695.662    A        1.095900    0.141530
    56    3704.054    A        1.091326    0.550274
    57    3712.804    A        1.100222    0.102351
    58    3736.283    A        1.106027    0.068357
    59    3777.398    A        1.116417    0.003199
    60    3780.003    A        1.116742    0.014824

     -------------------------------
     THERMOCHEMISTRY AT T=  298.15 K
     -------------------------------

 USING IDEAL GAS, RIGID ROTOR, HARMONIC NORMAL MODE APPROXIMATIONS.
 P=  1.01325E+05 PASCAL.
 ALL FREQUENCIES ARE SCALED BY   1.00000
 THE MOMENTS OF INERTIA ARE (IN AMU*BOHR**2)
            852.44595          1312.34282          1651.70826
 THE ROTATIONAL SYMMETRY NUMBER IS  1.0
 THE ROTATIONAL CONSTANTS ARE (IN GHZ)
      2.11519     1.37395     1.09165
   1 IMAGINARY FREQUENCY VIBRATION(S) IS(ARE) EXCLUDED
     FROM THE FOLLOWING THERMOCHEMICAL ANALYSIS.
      8 -     60 VIBRATIONAL MODES ARE USED IN THERMOCHEMISTRY.
 THE HARMONIC ZERO POINT ENERGY IS (SCALED BY   1.000)
        0.192360 HARTREE/MOLECULE    42218.048920 CM**-1/MOLECULE 
      120.707580 KCAL/MOL              505.040515 KJ/MOL

               Q               LN Q
 ELEC.     1.00000E+00       0.000000
 TRANS.    6.10192E+07      17.926699
 ROT.      4.86592E+05      13.095182
 VIB.      1.44452E+01       2.670365
 TOT.      4.28901E+14      33.692246

              E         H         G         CV        CP        S
           KJ/MOL    KJ/MOL    KJ/MOL   J/MOL-K   J/MOL-K   J/MOL-K
 ELEC.      0.000     0.000     0.000     0.000     0.000     0.000
 TRANS.     3.718     6.197   -44.439    12.472    20.786   169.836
 ROT.       3.718     3.718   -32.462    12.472    12.472   121.350
 VIB.     516.151   516.151   498.421    93.000    93.000    59.468
 TOTAL    523.588   526.067   421.519   117.943   126.257   350.654
 VIB. THERMAL CORRECTION E(T)-E(0) = H(T)-H(0) =     11110.663 J/MOL

              E         H         G         CV        CP        S
         KCAL/MOL  KCAL/MOL  KCAL/MOL CAL/MOL-K CAL/MOL-K CAL/MOL-K
 ELEC.      0.000     0.000     0.000     0.000     0.000     0.000
 TRANS.     0.889     1.481   -10.621     2.981     4.968    40.592
 ROT.       0.889     0.889    -7.759     2.981     2.981    29.003
 VIB.     123.363   123.363   119.125    22.227    22.227    14.213
 TOTAL    125.141   125.733   100.746    28.189    30.176    83.808
 VIB. THERMAL CORRECTION E(T)-E(0) = H(T)-H(0) =      2655.512 CAL/MOL
 ......END OF NORMAL COORDINATE ANALYSIS......
 STEP CPU TIME =     0.01 TOTAL CPU TIME =         67.4 (      1.1 MIN)
 TOTAL WALL CLOCK TIME=         67.5 SECONDS, CPU UTILIZATION IS    99.75%
               580000  WORDS OF DYNAMIC MEMORY USED
 EXECUTION OF GAMESS TERMINATED NORMALLY Thu Nov  4 23:07:02 2021
 DDI: 263640 bytes (0.3 MB / 0 MWords) used by master data server.

 ----------------------------------------
 CPU timing information for all processes
 ========================================
 0: 66.701 + 0.686 = 67.387
 ----------------------------------------
 ddikick.x: exited gracefully.
----- accounting info -----
Files used on the master node chemcompute-node-0.novalocal were:
-rw-r--r--. 1 chemcomp chemcomp     1515 Nov  4 23:05 /scratch/300978/335920.F05
-rw-rw-r--. 1 chemcomp chemcomp 17821584 Nov  4 23:06 /scratch/300978/335920.F08
-rw-rw-r--. 1 chemcomp chemcomp 70451200 Nov  4 23:07 /scratch/300978/335920.F10
-rw-rw-r--. 1 chemcomp chemcomp   878880 Nov  4 23:06 /scratch/300978/335920.F18
Thu Nov  4 23:07:05 UTC 2021
0.140u 0.093s 1:11.33 0.3%	0+0k 8+216io 0pf+0w
Finishing Up...
Looking for IR data...
Looking for Raman data...
vibramans not found
Looking for thermodynamics data...
Looking for UV-Vis data...
300978
