----- GAMESS execution script 'rungms' -----
This job is running on host chemcompute-node-0.novalocal
under operating system Linux at Sat Nov 13 15:07:52 UTC 2021
SLURM has assigned the following compute nodes to this run:
chemcompute-node-0
Available scratch disk space (Kbyte units) at beginning of the job is
Filesystem     1K-blocks     Used Available Use% Mounted on
/dev/sda1       62903276 21353964  41549312  34% /
GAMESS temporary binary files will be written to /scratch/305976
GAMESS supplementary output files will be written to /data/slurm/341878
Copying input file 341878.inp to your run's scratch directory...
The generated host list is
chemcompute-node-0.novalocal

 Distributed Data Interface kickoff program.
 Initiating 1 compute processes on 1 nodes to run the following command:
 /data/gamess-2019R1-ddi/gamess.00.x 341878 

          ******************************************************
          *         GAMESS VERSION = 30 JUN 2019 (R1)          *
          *             FROM IOWA STATE UNIVERSITY             *
          * M.W.SCHMIDT, K.K.BALDRIDGE, J.A.BOATZ, S.T.ELBERT, *
          *   M.S.GORDON, J.H.JENSEN, S.KOSEKI, N.MATSUNAGA,   *
          *          K.A.NGUYEN, S.J.SU, T.L.WINDUS,           *
          *       TOGETHER WITH M.DUPUIS, J.A.MONTGOMERY       *
          *         J.COMPUT.CHEM.  14, 1347-1363(1993)        *
          **************** 64 BIT LINUX VERSION ****************

  SINCE 1993, STUDENTS AND POSTDOCS WORKING AT IOWA STATE UNIVERSITY
  AND ALSO IN THEIR VARIOUS JOBS AFTER LEAVING ISU HAVE MADE IMPORTANT
  CONTRIBUTIONS TO THE CODE:
     IVANA ADAMOVIC, CHRISTINE AIKENS, YURI ALEXEEV, POOJA ARORA,
     ANDREY ASADCHEV, ROB BELL, PRADIPTA BANDYOPADHYAY, JONATHAN BENTZ,
     COLLEEN BERTONI, BRETT BODE, KURT BRORSEN, CALEB CARLIN, GALINA CHABAN,
     WEI CHEN, CHEOL HO CHOI, PAUL DAY, ALBERT DEFUSCO, NUWAN DESILVA,
     TIM DUDLEY, DMITRI FEDOROV, ALEX FINDLATER, GRAHAM FLETCHER, 
     MARK FREITAG, KURT GLAESEMANN, ANASTASIA GUNINA,
     DAN KEMP, GRANT MERRILL, NORIYUKI MINEZAWA, JONATHAN MULLIN,
     TAKESHI NAGATA, SEAN NEDD, HEATHER NETZLOFF, BOSILJKA NJEGIC, RYAN OLSON,
     MIKE PAK, BUU PHAM,
     SPENCER PRUITT, LUKE ROSKOP, JIM SHOEMAKER, LYUDMILA SLIPCHENKO,
     TONY SMITH, SAROM SOK LEANG, JIE SONG, TETSUYA TAKETSUGU, SIMON WEBB,
     PENG XU, SOOHAENG YOO, FEDERICO ZAHARIEV

  ADDITIONAL CODE HAS BEEN PROVIDED BY COLLABORATORS IN OTHER GROUPS:
     IOWA STATE UNIVERSITY:
          JOE IVANIC, AARON WEST, LAIMUTIS BYTAUTAS, KLAUS RUEDENBERG
     UNIVERSITY OF TOKYO: KIMIHIKO HIRAO, TAKAHITO NAKAJIMA,
          TAKAO TSUNEDA, MUNEAKI KAMIYA, SUSUMU YANAGISAWA,
          KIYOSHI YAGI, MAHITO CHIBA, SEIKEN TOKURA, NAOAKI KAWAKAMI
     UNIVERSITY OF AARHUS: FRANK JENSEN
     UNIVERSITY OF IOWA: VISVALDAS KAIRYS, HUI LI
     NATIONAL INST. OF STANDARDS AND TECHNOLOGY: WALT STEVENS, DAVID GARMER
     UNIVERSITY OF PISA: BENEDETTA MENNUCCI, JACOPO TOMASI
     UNIVERSITY OF MEMPHIS: HENRY KURTZ, PRAKASHAN KORAMBATH
     UNIVERSITY OF ALBERTA: TOBY ZENG, MARIUSZ KLOBUKOWSKI
     UNIVERSITY OF NEW ENGLAND: MARK SPACKMAN
     MIE UNIVERSITY: HIROAKI UMEDA
     NAT. INST. OF ADVANCED INDUSTRIAL SCIENCE AND TECHNOLOGY: KAZUO KITAURA
     MICHIGAN STATE UNIVERSITY:
          KAROL KOWALSKI, MARTA WLOCH, JEFFREY GOUR, JESSE LUTZ,
          WEI LI, JUN SHEN, J. EMILIANO DEUSTUA, PIOTR PIECUCH
     UNIVERSITY OF MINNESOTA:
          YINAN SHU
     UNIVERSITY OF SILESIA: MONIKA MUSIAL, STANISLAW KUCHARSKI
     FACULTES UNIVERSITAIRES NOTRE-DAME DE LA PAIX:
          OLIVIER QUINET, BENOIT CHAMPAGNE
     UNIVERSITY OF CALIFORNIA - SANTA BARBARA: BERNARD KIRTMAN
     INSTITUTE FOR MOLECULAR SCIENCE:
          KAZUYA ISHIMURA, MICHIO KATOUDA, AND SHIGERU NAGASE
     UNIVERSITY OF NOTRE DAME: ANNA POMOGAEVA, DAN CHIPMAN
     KYUSHU UNIVERSITY:
          HARUYUKI NAKANO,
          FENG LONG GU, JACEK KORCHOWIEC, MARCIN MAKOWSKI, AND YURIKO AOKI,
          HIROTOSHI MORI AND EISAKU MIYOSHI
     PENNSYLVANIA STATE UNIVERSITY:
          TZVETELIN IORDANOV, CHET SWALINA, JONATHAN SKONE,
          SHARON HAMMES-SCHIFFER
     WASEDA UNIVERSITY:
          MASATO KOBAYASHI, TOMOKO AKAMA, TSUGUKI TOUMA,
          TAKESHI YOSHIKAWA, YASUHIRO IKABATA, JUNJI SEINO,
          YUYA NAKAJIMA, HIROMI NAKAI
     NANJING UNIVERSITY: SHUHUA LI
     UNIVERSITY OF NEBRASKA:
          PEIFENG SU, DEJUN SI, NANDUN THELLAMUREGE, YALI WANG, HUI LI
     UNIVERSITY OF ZURICH: ROBERTO PEVERATI, KIM BALDRIDGE
     N. COPERNICUS UNIVERSITY AND JACKSON STATE UNIVERSITY:
          MARIA BARYSZ
     UNIVERSITY OF COPENHAGEN: Jimmy Kromann, CASPER STEINMANN
     TOKYO INSTITUTE OF TECHNOLOGY: HIROYA NAKATA
     NAGOYA UNIVERSITY: YOSHIO NISHIMOTO, STEPHAN IRLE
     MOSCOW STATE UNIVERSITY: VLADIMIR MIRONOV
     A.N.NESMEYANOV INSTITUTE OF ORGANOELEMENT COMPOUNDS OF RUSSIAN ACADEMY OF SCIENCES:
          IGOR S. GERASIMOV

 EXECUTION OF GAMESS BEGUN Sat Nov 13 15:07:54 2021

            ECHO OF THE FIRST FEW INPUT CARDS -
 INPUT CARD>!File created by the GAMESS Input Deck Generator Plugin for Avogadro            
 INPUT CARD> $BASIS GBASIS=STO NGAUSS=3 $END                                                
 INPUT CARD> $CONTRL SCFTYP=RHF RUNTYP=SADPOINT NZVAR=1 mult=1  ICHARG=0 $END               
 INPUT CARD> $STATPT hssend=.t. OPTTOL=0.0005 NSTEP=50 $END                                 
 INPUT CARD> $STATPT HESS=calc ihrep=5 $END                                                 
 INPUT CARD> $FORCE NVIB=2 $END                                                             
 INPUT CARD> $ZMAT DLC=.t. auto=.t. nonvdw(1)= 6,17,9,19,6,9 $END                           
 INPUT CARD>!$ZMAT IFZMAT(1)=1,6,17,1,17,19,1,9,19 fvalue(1)=2.08,1.98,2.01 $END            
 INPUT CARD>                                                                                
 INPUT CARD> $DATA                                                                          
 INPUT CARD>Title                                                                           
 INPUT CARD>C1                                                                              
 INPUT CARD>C     6.0     3.31329393    -4.84642315     0.19460276                          
 INPUT CARD>C     6.0     2.36123085    -3.68956494    -0.21298659                          
 INPUT CARD>C     6.0     2.39265776    -6.01574802     0.63345575                          
 INPUT CARD>H     1.0     4.00154209    -4.55790567     0.98452824                          
 INPUT CARD>H     1.0     3.90437293    -5.15089321    -0.66588002                          
 INPUT CARD>C     6.0     1.04306507    -4.39640188    -0.53130323                          
 INPUT CARD>H     1.0     2.73232388    -3.15948629    -1.08797526                          
 INPUT CARD>H     1.0     2.26216722    -2.96062660     0.58958447                          
 INPUT CARD>C     6.0     1.02629721    -5.72531939    -0.05034907                          
 INPUT CARD>H     1.0     2.29278255    -6.04594851     1.71425724                          
 INPUT CARD>H     1.0     2.77475429    -6.98085690     0.30847445                          
 INPUT CARD>H     1.0     0.41813305    -4.08824158    -1.35667837                          
 INPUT CARD>C     6.0     0.30978364    -6.83520603    -0.83660930                          
 INPUT CARD>H     1.0     0.85484707    -7.00921583    -1.76325858                          
 INPUT CARD>H     1.0    -0.70343632    -6.53521919    -1.08610272                          
 INPUT CARD>H     1.0     0.27421483    -7.76140594    -0.27268869                          
 INPUT CARD>B     5.0    -0.23443246    -4.49476480     1.10720968                          
 INPUT CARD>H     1.0     0.29526281    -3.91978359     1.95424151                          
 INPUT CARD>H     1.0     0.02542222    -6.40603781     1.55432260                          
 INPUT CARD>H     1.0    -1.30419314    -4.40811586     0.68635833                          
 INPUT CARD> $END                                                                           
 INPUT CARD>                                                                                
 INPUT CARD>                                                                                
    1000000 WORDS OF MEMORY AVAILABLE

     BASIS OPTIONS
     -------------
     GBASIS=STO          IGAUSS=       3      POLAR=NONE    
     NDFUNC=       0     NFFUNC=       0     DIFFSP=       F
     NPFUNC=       0      DIFFS=       F     BASNAM=        


     RUN TITLE
     ---------
 Title                                                                           

 THE POINT GROUP OF THE MOLECULE IS C1      
 THE ORDER OF THE PRINCIPAL AXIS IS     0

 ATOM      ATOMIC                      COORDINATES (BOHR)
           CHARGE         X                   Y                   Z
 C           6.0     6.2612176445       -9.1584117741        0.3677458929
 C           6.0     4.4620793003       -6.9722667505       -0.4024862942
 C           6.0     4.5214675488      -11.3681153690        1.1970577928
 H           1.0     7.5618180784       -8.6131927942        1.8604886008
 H           1.0     7.3781949916       -9.7337767589       -1.2583307785
 C           6.0     1.9711071697       -8.3079948851       -1.0040175211
 H           1.0     5.1633434429       -5.9705633501       -2.0559751228
 H           1.0     4.2748761842       -5.5947730260        1.1141530949
 C           6.0     1.9394205089      -10.8192848393       -0.0951459460
 H           1.0     4.3327307689      -11.4251860198        3.2394764561
 H           1.0     5.2435252914      -13.1919067005        0.5829321847
 H           1.0     0.7901568909       -7.7256563578       -2.5637503728
 C           6.0     0.5854061951      -12.9166664663       -1.5809623358
 H           1.0     1.6154267237      -13.2454973075       -3.3320755617
 H           1.0    -1.3293018946      -12.3497735388       -2.0524365353
 H           1.0     0.5181908905      -14.6669305061       -0.5153069041
 B           5.0    -0.4430131120       -8.4938738513        2.0923229062
 H           1.0     0.5579658053       -7.4073169163        3.6929809677
 H           1.0     0.0480410298      -12.1056561279        2.9372438105
 H           1.0    -2.4645676697       -8.3301310975        1.2970291731

          INTERNUCLEAR DISTANCES (ANGS.)
          ------------------------------

                1 C          2 C          3 C          4 H          5 H     

   1 C       0.0000000    1.5526990 *  1.5516068 *  1.0866969 *  1.0874314 *
   2 C       1.5526990 *  0.0000000    2.4755969 *  2.2087730 *  2.1729888 *
   3 C       1.5516068 *  2.4755969 *  0.0000000    2.1993329 *  2.1729082 *
   4 H       1.0866969 *  2.2087730 *  2.1993329 *  0.0000000    1.7563950 *
   5 H       1.0874314 *  2.1729888 *  2.1729082 *  1.7563950 *  0.0000000  
   6 C       2.4255716 *  1.5292171 *  2.4083907 *  3.3281248    2.9621699 *
   7 H       2.1973367 *  1.0882548 *  3.3521529    2.8038834 *  2.3489497 *
   8 H       2.1947908 *  1.0887080 *  3.0582216    2.3943070 *  3.0116936  
   9 C       2.4622782 *  2.4398350 *  1.5552746 *  3.3594505    2.9986937 *
  10 H       2.1885279 *  3.0449134    1.0858264 *  2.3804695 *  3.0105483  
  11 H       2.2042684 *  3.3579050    1.0876791 *  2.7987050 *  2.3609684 *
  12 H       3.3709448    2.2896731 *  3.4021556    4.3061181    3.7094877  
  13 C       3.7469627    3.8068883    2.6778662 *  4.7044361    3.9733022  
  14 H       3.8150825    3.9613908    3.0159708    4.8436498    3.7359350  
  15 H       4.5416253    4.2722669    3.5794595    5.5076404    4.8295809  
  16 H       4.2369196    4.5759250    2.8907127 *  5.0730639    4.4885882  
  17 B       3.6800649    3.0213793    3.0723665    4.2382211    4.5501716  
  18 H       3.6143466    3.0030155    3.2460141    3.8838190    4.6266990  
  19 H       3.8847569    3.9948227    2.5698494 *  4.4215141    4.6422997  
  20 H       4.6642388    3.8419357    4.0316233    5.3162175    5.4322580  

                6 C          7 H          8 H          9 C         10 H     

   1 C       2.4255716 *  2.1973367 *  2.1947908 *  2.4622782 *  2.1885279 *
   2 C       1.5292171 *  1.0882548 *  1.0887080 *  2.4398350 *  3.0449134  
   3 C       2.4083907 *  3.3521529    3.0582216    1.5552746 *  1.0858264 *
   4 H       3.3281248    2.8038834 *  2.3943070 *  3.3594505    2.3804695 *
   5 H       2.9621699 *  2.3489497 *  3.0116936    2.9986937 *  3.0105483  
   6 C       0.0000000    2.1664347 *  2.1918143 *  1.4133718 *  3.0537419  
   7 H       2.1664347 *  0.0000000    1.7535105 *  3.2512605    4.0468961  
   8 H       2.1918143 *  1.7535105 *  0.0000000    3.0952247    3.2840581  
   9 C       1.4133718 *  3.2512605    3.0952247    0.0000000    2.1955919 *
  10 H       3.0537419    4.0468961    3.2840581    2.1955919 *  0.0000000  
  11 H       3.2223255    4.0687523    4.0625140    2.1822536 *  1.7557265 *
  12 H       1.0801606 *  2.5080405 *  2.9085936 *  2.1809135 *  4.0960435  
  13 C       2.5648936 *  4.4093992    4.5670774    1.5373501 *  3.3259784  
  14 H       2.8948120 *  4.3360517    4.8895291    2.1475205 *  3.8844123  
  15 H       2.8164888 *  4.8166404    4.9376557    2.1727175 *  4.1302214  
  16 H       3.4613963    5.2805925    5.2671579    2.1819054 *  3.3113991  
  17 B       2.0799999 *  3.9247228    2.9756555 *  2.1079958 *  3.0267959  
  18 H       2.6389971 *  3.9714483    2.5789502 *  2.7951304 *  2.9271581 *
  19 H       3.0698646    4.9848923    4.2195505    2.0099999 *  2.3013401 *
  20 H       2.6443256 *  4.5826635    3.8501320    2.7764993 *  4.0837858  

               11 H         12 H         13 C         14 H         15 H     

   1 C       2.2042684 *  3.3709448    3.7469627    3.8150825    4.5416253  
   2 C       3.3579050    2.2896731 *  3.8068883    3.9613908    4.2722669  
   3 C       1.0876791 *  3.4021556    2.6778662 *  3.0159708    3.5794595  
   4 H       2.7987050 *  4.3061181    4.7044361    4.8436498    5.5076404  
   5 H       2.3609684 *  3.7094877    3.9733022    3.7359350    4.8295809  
   6 C       3.2223255    1.0801606 *  2.5648936 *  2.8948120 *  2.8164888 *
   7 H       4.0687523    2.5080405 *  4.4093992    4.3360517    4.8166404  
   8 H       4.0625140    2.9085936 *  4.5670774    4.8895291    4.9376557  
   9 C       2.1822536 *  2.1809135 *  1.5373501 *  2.1475205 *  2.1727175 *
  10 H       1.7557265 *  4.0960435    3.3259784    3.8844123    4.1302214  
  11 H       0.0000000    4.0857828    2.7218581 *  2.8246992 *  3.7737579  
  12 H       4.0857828    0.0000000    2.7978608 *  2.9812945 *  2.7053333 *
  13 C       2.7218581 *  2.7978608 *  0.0000000    1.0890603 *  1.0857503 *
  14 H       2.8246992 *  2.9812945 *  1.0890603 *  0.0000000    1.7639331 *
  15 H       3.7737579    2.7053333 *  1.0857503 *  1.7639331 *  0.0000000  
  16 H       2.6832266 *  3.8324773    1.0849506 *  1.7676884 *  1.7666290 *
  17 B       3.9841984    2.5810554 *  3.0906744    3.9684483    3.0321672  
  18 H       4.2692619    3.3174788    4.0359320    4.8659565    4.1329888  
  19 H       3.0726831    3.7417012    2.4457314 *  3.4724795    2.7422196 *
  20 H       4.8373138    2.6912313 *  3.2886347    4.1746615    2.8332129 *

               16 H         17 B         18 H         19 H         20 H     

   1 C       4.2369196    3.6800649    3.6143466    3.8847569    4.6642388  
   2 C       4.5759250    3.0213793    3.0030155    3.9948227    3.8419357  
   3 C       2.8907127 *  3.0723665    3.2460141    2.5698494 *  4.0316233  
   4 H       5.0730639    4.2382211    3.8838190    4.4215141    5.3162175  
   5 H       4.4885882    4.5501716    4.6266990    4.6422997    5.4322580  
   6 C       3.4613963    2.0799999 *  2.6389971 *  3.0698646    2.6443256 *
   7 H       5.2805925    3.9247228    3.9714483    4.9848923    4.5826635  
   8 H       5.2671579    2.9756555 *  2.5789502 *  4.2195505    3.8501320  
   9 C       2.1819054 *  2.1079958 *  2.7951304 *  2.0099999 *  2.7764993 *
  10 H       3.3113991    3.0267959    2.9271581 *  2.3013401 *  4.0837858  
  11 H       2.6832266 *  3.9841984    4.2692619    3.0726831    4.8373138  
  12 H       3.8324773    2.5810554 *  3.3174788    3.7417012    2.6912313 *
  13 C       1.0849506 *  3.0906744    4.0359320    2.4457314 *  3.2886347  
  14 H       1.7676884 *  3.9684483    4.8659565    3.4724795    4.1746615  
  15 H       1.7666290 *  3.0321672    4.1329888    2.7422196 *  2.8332129 *
  16 H       0.0000000    3.5824274    4.4404643    2.2884254 *  3.8282760  
  17 B       3.5824274    0.0000000    1.1526679 *  1.9799997 *  1.1528277 *
  18 H       4.4404643    1.1526679 *  0.0000000    2.5326289 *  2.0986318 *
  19 H       2.2884254 *  1.9799997 *  2.5326289 *  0.0000000    2.5520445 *
  20 H       3.8282760    1.1528277 *  2.0986318 *  2.5520445 *  0.0000000  

  * ... LESS THAN  3.000


     ATOMIC BASIS SET
     ----------------
 THE CONTRACTED PRIMITIVE FUNCTIONS HAVE BEEN UNNORMALIZED
 THE CONTRACTED BASIS FUNCTIONS ARE NOW NORMALIZED TO UNITY

  SHELL TYPE  PRIMITIVE        EXPONENT          CONTRACTION COEFFICIENT(S)

 C         

      1   S       1            71.6168373    0.154328967295
      1   S       2            13.0450963    0.535328142282
      1   S       3             3.5305122    0.444634542185

      2   L       4             2.9412494   -0.099967229187    0.155916274999
      2   L       5             0.6834831    0.399512826089    0.607683718598
      2   L       6             0.2222899    0.700115468880    0.391957393099

 C         

      3   S       7            71.6168373    0.154328967295
      3   S       8            13.0450963    0.535328142282
      3   S       9             3.5305122    0.444634542185

      4   L      10             2.9412494   -0.099967229187    0.155916274999
      4   L      11             0.6834831    0.399512826089    0.607683718598
      4   L      12             0.2222899    0.700115468880    0.391957393099

 C         

      5   S      13            71.6168373    0.154328967295
      5   S      14            13.0450963    0.535328142282
      5   S      15             3.5305122    0.444634542185

      6   L      16             2.9412494   -0.099967229187    0.155916274999
      6   L      17             0.6834831    0.399512826089    0.607683718598
      6   L      18             0.2222899    0.700115468880    0.391957393099

 H         

      7   S      19             3.4252509    0.154328967295
      7   S      20             0.6239137    0.535328142282
      7   S      21             0.1688554    0.444634542185

 H         

      8   S      22             3.4252509    0.154328967295
      8   S      23             0.6239137    0.535328142282
      8   S      24             0.1688554    0.444634542185

 C         

      9   S      25            71.6168373    0.154328967295
      9   S      26            13.0450963    0.535328142282
      9   S      27             3.5305122    0.444634542185

     10   L      28             2.9412494   -0.099967229187    0.155916274999
     10   L      29             0.6834831    0.399512826089    0.607683718598
     10   L      30             0.2222899    0.700115468880    0.391957393099

 H         

     11   S      31             3.4252509    0.154328967295
     11   S      32             0.6239137    0.535328142282
     11   S      33             0.1688554    0.444634542185

 H         

     12   S      34             3.4252509    0.154328967295
     12   S      35             0.6239137    0.535328142282
     12   S      36             0.1688554    0.444634542185

 C         

     13   S      37            71.6168373    0.154328967295
     13   S      38            13.0450963    0.535328142282
     13   S      39             3.5305122    0.444634542185

     14   L      40             2.9412494   -0.099967229187    0.155916274999
     14   L      41             0.6834831    0.399512826089    0.607683718598
     14   L      42             0.2222899    0.700115468880    0.391957393099

 H         

     15   S      43             3.4252509    0.154328967295
     15   S      44             0.6239137    0.535328142282
     15   S      45             0.1688554    0.444634542185

 H         

     16   S      46             3.4252509    0.154328967295
     16   S      47             0.6239137    0.535328142282
     16   S      48             0.1688554    0.444634542185

 H         

     17   S      49             3.4252509    0.154328967295
     17   S      50             0.6239137    0.535328142282
     17   S      51             0.1688554    0.444634542185

 C         

     18   S      52            71.6168373    0.154328967295
     18   S      53            13.0450963    0.535328142282
     18   S      54             3.5305122    0.444634542185

     19   L      55             2.9412494   -0.099967229187    0.155916274999
     19   L      56             0.6834831    0.399512826089    0.607683718598
     19   L      57             0.2222899    0.700115468880    0.391957393099

 H         

     20   S      58             3.4252509    0.154328967295
     20   S      59             0.6239137    0.535328142282
     20   S      60             0.1688554    0.444634542185

 H         

     21   S      61             3.4252509    0.154328967295
     21   S      62             0.6239137    0.535328142282
     21   S      63             0.1688554    0.444634542185

 H         

     22   S      64             3.4252509    0.154328967295
     22   S      65             0.6239137    0.535328142282
     22   S      66             0.1688554    0.444634542185

 B         

     23   S      67            48.7911132    0.154328967295
     23   S      68             8.8873622    0.535328142282
     23   S      69             2.4052670    0.444634542185

     24   L      70             2.2369561   -0.099967229187    0.155916274999
     24   L      71             0.5198205    0.399512826089    0.607683718598
     24   L      72             0.1690618    0.700115468880    0.391957393099

 H         

     25   S      73             3.4252509    0.154328967295
     25   S      74             0.6239137    0.535328142282
     25   S      75             0.1688554    0.444634542185

 H         

     26   S      76             3.4252509    0.154328967295
     26   S      77             0.6239137    0.535328142282
     26   S      78             0.1688554    0.444634542185

 H         

     27   S      79             3.4252509    0.154328967295
     27   S      80             0.6239137    0.535328142282
     27   S      81             0.1688554    0.444634542185

 TOTAL NUMBER OF BASIS SET SHELLS             =   27
 NUMBER OF CARTESIAN GAUSSIAN BASIS FUNCTIONS =   48
 NUMBER OF ELECTRONS                          =   54
 CHARGE OF MOLECULE                           =    0
 SPIN MULTIPLICITY                            =    1
 NUMBER OF OCCUPIED ORBITALS (ALPHA)          =   27
 NUMBER OF OCCUPIED ORBITALS (BETA )          =   27
 TOTAL NUMBER OF ATOMS                        =   20
 THE NUCLEAR REPULSION ENERGY IS      303.0296121980

     $CONTRL OPTIONS
     ---------------
 SCFTYP=RHF          RUNTYP=SADPOINT     EXETYP=RUN     
 MPLEVL=       0     CITYP =NONE         CCTYP =NONE         VBTYP =NONE    
 DFTTYP=NONE         TDDFT =NONE    
 MULT  =       1     ICHARG=       0     NZVAR =       1     COORD =UNIQUE  
 PP    =NONE         RELWFN=NONE         LOCAL =NONE         NUMGRD=       F
 ISPHER=      -1     NOSYM =       0     MAXIT =      30     UNITS =ANGS    
 PLTORB=       F     MOLPLT=       F     AIMPAC=       F     FRIEND=        
 NPRINT=       7     IREST =       0     GEOM  =INPUT   
 NORMF =       0     NORMP =       0     ITOL  =      20     ICUT  =       9
 INTTYP=BEST         GRDTYP=BEST         QMTTOL= 1.0E-06

     $SYSTEM OPTIONS
     ---------------
  REPLICATED MEMORY=     1000000 WORDS (ON EVERY NODE).
 DISTRIBUTED MEMDDI=           0 MILLION WORDS IN AGGREGATE,
 MEMDDI DISTRIBUTED OVER   1 PROCESSORS IS           0 WORDS/PROCESSOR.
 TOTAL MEMORY REQUESTED ON EACH PROCESSOR=     1000000 WORDS.
 TIMLIM=      525600.00 MINUTES, OR     365.0 DAYS.
 PARALL= F  BALTYP=  DLB     KDIAG=    0  COREFL= F
 MXSEQ2=     300 MXSEQ3=     150  mem10=         0

          ----------------
          PROPERTIES INPUT
          ----------------

     MOMENTS            FIELD           POTENTIAL          DENSITY
 IEMOM =       1   IEFLD =       0   IEPOT =       0   IEDEN =       0
 WHERE =COMASS     WHERE =NUCLEI     WHERE =NUCLEI     WHERE =NUCLEI  
 OUTPUT=BOTH       OUTPUT=BOTH       OUTPUT=BOTH       OUTPUT=BOTH    
 IEMINT=       0   IEFINT=       0                     IEDINT=       0
                                                       MORB  =       0
          EXTRAPOLATION IN EFFECT
          SOSCF IN EFFECT
 ORBITAL PRINTING OPTION: NPREO=     1    48     2     1

     -------------------------------
     INTEGRAL TRANSFORMATION OPTIONS
     -------------------------------
     NWORD  =            0
     CUTOFF = 1.0E-09     MPTRAN =       0
     DIRTRF =       F     AOINTS =DUP     

          ----------------------
          INTEGRAL INPUT OPTIONS
          ----------------------
 NOPK  =       1 NORDER=       0 SCHWRZ=       T


 -----------------------------------------------
  STATISTICS ON AUTOMATIC COORDINATE GENERATION 
 -----------------------------------------------
  NUMBER OF USER SPECIFIED BONDS                             3
  NUMBER OF BONDS                                           21
  NUMBER OF ANGLES                                          45
  NUMBER OF TORSIONS                                        60
  NUMBER OF EXTRA COORD.                                     0
  NUMBER OF EXTRA COORD. FOR CONSTRAINTS                     0
  NUMBER OF CONSTRAINED COORD.                               0

  TOTAL NUMBER OF PRIMITIVES                               126
 -----------------------------------------------

   --- ENCODED Z MATRIX ---
 COORD  TYPE   I   J   K   L   M   N
    1      1    1   4
    2      1    1   3
    3      1    1   5
    4      1    1   2
    5      1    2   7
    6      1    2   6
    7      1    2   8
    8      1    3  10
    9      1    3   9
   10      1    3  11
   11      1    6  12
   12      1    6   9
   13      1    6  17
   14      1    6   9
   15      1    9  13
   16      1    9  19
   17      1   13  15
   18      1   13  14
   19      1   13  16
   20      1   17  20
   21      1   17  18
   22      2    1   3  10
   23      2    1   3  11
   24      2    1   2   7
   25      2    1   3   9
   26      2    1   2   8
   27      2    1   2   6
   28      2    2   6  17
   29      2    2   1   3
   30      2    2   6  12
   31      2    2   1   5
   32      2    2   6   9
   33      2    2   6   9
   34      2    2   1   4
   35      2    3   9  19
   36      2    3   9  13
   37      2    3   9   6
   38      2    3   9   6
   39      2    3   1   5
   40      2    3   1   4
   41      2    4   1   5
   42      2    6   2   8
   43      2    6   9  13
   44      2    6   2   7
   45      2    6   9  19
   46      2    6   9  13
   47      2    6  17  18
   48      2    6  17  20
   49      2    6   9  19
   50      2    7   2   8
   51      2    9   6  17
   52      2    9   6  12
   53      2    9   6  12
   54      2    9   3  11
   55      2    9  13  16
   56      2    9  13  14
   57      2    9   3  10
   58      2    9  13  15
   59      2    9   6  17
   60      2   10   3  11
   61      2   12   6  17
   62      2   13   9  19
   63      2   14  13  16
   64      2   14  13  15
   65      2   15  13  16
   66      2   18  17  20
   67      3    1   3   9  13
   68      3    1   3   9   6
   69      3    1   2   6  17
   70      3    1   2   6   9
   71      3    1   2   6  12
   72      3    1   3   9  19
   73      3    2   6  17  18
   74      3    2   6  17  20
   75      3    2   1   3   9
   76      3    2   1   3  11
   77      3    2   6   9  19
   78      3    2   6   9  13
   79      3    2   1   3  10
   80      3    2   6   9   3
   81      3    3   1   2   6
   82      3    3   1   2   8
   83      3    3   9   6  17
   84      3    3   9   6  12
   85      3    3   1   2   7
   86      3    3   9  13  16
   87      3    3   9  13  14
   88      3    3   9  13  15
   89      3    4   1   2   7
   90      3    4   1   3  10
   91      3    4   1   2   6
   92      3    4   1   3   9
   93      3    4   1   3  11
   94      3    4   1   2   8
   95      3    5   1   3   9
   96      3    5   1   2   6
   97      3    5   1   3  11
   98      3    5   1   2   8
   99      3    5   1   3  10
  100      3    5   1   2   7
  101      3    6   9  13  16
  102      3    6   9  13  14
  103      3    6   9  13  15
  104      3    6   9   3  11
  105      3    6   9   3  10
  106      3    7   2   6  17
  107      3    7   2   6   9
  108      3    7   2   6  12
  109      3    8   2   6  17
  110      3    8   2   6   9
  111      3    8   2   6  12
  112      3    9   6  17  20
  113      3    9   6  17  18
  114      3   10   3   9  13
  115      3   10   3   9  19
  116      3   11   3   9  19
  117      3   11   3   9  13
  118      3   12   6  17  20
  119      3   12   6  17  18
  120      3   12   6   9  19
  121      3   12   6   9  13
  122      3   13   9   6  17
  123      3   14  13   9  19
  124      3   15  13   9  19
  125      3   16  13   9  19
  126      3   17   6   9  19

          INDEP./SYM. INTERNAL COORDINATES
          --------------------------------
 CRD  1=  -0.1099 (  9)  0.1291 ( 12)  0.1291 ( 14)  0.1132 ( 15) -0.3271 ( 28)
          -0.1984 ( 36)  0.1132 ( 43)  0.1132 ( 46) -0.2222 ( 47)  0.1195 ( 48)
           0.3002 ( 51)  0.1607 ( 58)  0.3002 ( 59)  0.1698 ( 69) -0.1368 ( 74)
           0.1288 ( 78)  0.2483 ( 83)  0.1460 (106)  0.1341 (109)  0.1047 (121)
           0.3747 (122)  0.2229 (126)
 CRD  2=   0.1253 (  6) -0.1510 (  9) -0.1357 ( 15)  0.2161 ( 28) -0.3949 ( 36)
           0.2833 ( 43)  0.2833 ( 46)  0.2069 ( 47) -0.1410 ( 48) -0.1930 ( 55)
           0.1311 ( 58) -0.1662 ( 61)  0.1204 ( 69)  0.1946 ( 78) -0.2946 ( 83)
           0.1295 (121) -0.1926 (126)
 CRD  3=  -0.2618 (  9)  0.1017 ( 24) -0.1555 ( 36)  0.1895 ( 43) -0.1158 ( 45)
           0.1895 ( 46) -0.1173 ( 47)  0.1942 ( 48) -0.1158 ( 49) -0.2789 ( 51)
          -0.1417 ( 55)  0.1263 ( 58) -0.2789 ( 59)  0.2377 ( 61) -0.2748 ( 69)
           0.1703 ( 83) -0.2026 (106)  0.1112 (107) -0.1934 (109)  0.1204 (110)
          -0.1257 (119)  0.2084 (122)  0.1470 (126)
 CRD  4=   0.2000 (  6)  0.1650 (  9)  0.1323 ( 12) -0.1073 ( 13)  0.1323 ( 14)
           0.4153 ( 15) -0.1414 ( 22)  0.1906 ( 25) -0.1003 ( 29)  0.1042 ( 35)
          -0.1916 ( 37) -0.1916 ( 38)  0.1915 ( 43)  0.1915 ( 46) -0.1116 ( 48)
           0.3342 ( 56) -0.1939 ( 62) -0.1123 ( 63) -0.1332 ( 64)  0.2067 ( 67)
          -0.1648 ( 78)  0.1298 (114)  0.1385 (117) -0.1011 (122)
 CRD  5=  -0.1754 (  6) -0.1611 (  9) -0.4612 ( 13) -0.3878 ( 15) -0.2531 ( 47)
          -0.2451 ( 48) -0.1754 ( 55) -0.1969 ( 58)  0.1415 ( 65)  0.2346 ( 66)
           0.1469 ( 67)  0.1156 ( 68) -0.1622 ( 78) -0.1351 ( 80)
 CRD  6=  -0.1279 (  4) -0.2180 (  6) -0.2936 ( 13)  0.2688 ( 15) -0.1125 ( 20)
          -0.1820 ( 25)  0.1566 ( 29) -0.1042 ( 30) -0.1032 ( 34)  0.1786 ( 47)
          -0.5016 ( 48)  0.2076 ( 55) -0.1482 ( 56)  0.1249 ( 57)  0.1598 ( 58)
          -0.1437 ( 65)  0.1609 ( 66) -0.1234 ( 74)
 CRD  7=  -0.1190 (  4) -0.1163 (  5) -0.4067 (  6) -0.1038 (  7)  0.3443 (  9)
           0.1301 ( 13) -0.2033 ( 15)  0.2706 ( 27) -0.1495 ( 29)  0.1485 ( 35)
           0.1191 ( 39) -0.1459 ( 42) -0.1561 ( 44)  0.1765 ( 47)  0.1265 ( 50)
          -0.2206 ( 55)  0.1201 ( 77) -0.1058 (113)  0.1689 (126)
 CRD  8=  -0.1396 (  2) -0.1048 (  6) -0.3323 (  9)  0.1510 ( 13) -0.1125 ( 20)
           0.1338 ( 21)  0.1044 ( 25) -0.1226 ( 35)  0.1016 ( 45)  0.5019 ( 47)
          -0.3150 ( 48)  0.1016 ( 49) -0.1023 ( 55)  0.1837 ( 56) -0.1833 ( 57)
          -0.1262 ( 58) -0.1048 ( 70)  0.1019 ( 81)  0.1358 ( 83) -0.1135 ( 88)
 CRD  9=  -0.1220 (  2) -0.1115 ( 10) -0.1163 ( 12) -0.2020 ( 13) -0.1163 ( 14)
          -0.1058 ( 23)  0.2480 ( 25) -0.1153 ( 26)  0.2403 ( 27) -0.3128 ( 29)
           0.1488 ( 31) -0.1352 ( 32) -0.1352 ( 33)  0.1200 ( 34) -0.1098 ( 41)
          -0.1044 ( 42) -0.1553 ( 48)  0.1012 ( 50) -0.3193 ( 56) -0.1302 ( 57)
           0.2511 ( 58)  0.1024 ( 60)  0.1222 ( 62) -0.1189 ( 65)  0.1224 ( 66)
          -0.1375 ( 77) -0.1105 (101) -0.1219 (112) -0.1655 (126)
 CRD 10=  -0.1498 (  2) -0.4008 (  4) -0.1473 ( 15) -0.1513 ( 23) -0.1694 ( 26)
           0.1290 ( 29) -0.1889 ( 34) -0.1164 ( 37) -0.1164 ( 38) -0.1360 ( 39)
           0.1622 ( 42)  0.1656 ( 45) -0.1824 ( 47)  0.1656 ( 49)  0.1061 ( 54)
          -0.1548 ( 55) -0.1300 ( 56)  0.1481 ( 58) -0.1611 ( 62)  0.1244 ( 63)
          -0.2159 ( 72)  0.1383 ( 77)  0.1078 ( 80)  0.1240 ( 82) -0.1514 (115)
 CRD 11=  -0.4546 (  2) -0.1459 (  6)  0.1697 (  9)  0.1653 ( 15)  0.1124 ( 18)
          -0.1100 ( 19) -0.1067 ( 25)  0.1269 ( 29) -0.1114 ( 35) -0.1260 ( 39)
          -0.1447 ( 40)  0.1178 ( 54) -0.2561 ( 55)  0.3417 ( 56)  0.1310 ( 57)
           0.1527 ( 62) -0.1918 ( 64) -0.1066 ( 77) -0.1092 ( 96) -0.1004 ( 99)
          -0.1144 (105) -0.1073 (114)  0.1247 (116) -0.1365 (126)
 CRD 12=  -0.1200 (  1) -0.2507 (  2) -0.4016 (  4) -0.1196 (  5) -0.1587 (  9)
          -0.1374 ( 17)  0.1133 ( 19) -0.1075 ( 22) -0.1027 ( 24)  0.1056 ( 48)
           0.3991 ( 55) -0.4216 ( 58) -0.1835 ( 63)  0.1468 ( 64)
 CRD 13=   0.3016 (  2)  0.1231 (  4)  0.1019 (  8) -0.1061 ( 13) -0.1085 ( 17)
           0.1032 ( 18)  0.1711 ( 22)  0.1196 ( 24) -0.1150 ( 26)  0.1002 ( 27)
          -0.1443 ( 29)  0.1433 ( 31)  0.2240 ( 40) -0.2189 ( 44) -0.2209 ( 47)
           0.2952 ( 56) -0.1037 ( 57) -0.2640 ( 58) -0.1511 ( 63)  0.1085 ( 65)
          -0.1324 ( 68)  0.1151 ( 78)  0.1057 ( 79)  0.1190 ( 80)  0.1222 ( 85)
          -0.1489 ( 91) -0.1148 (104) -0.1104 (112)
 CRD 14=  -0.2699 (  2)  0.4055 (  4)  0.1433 (  9)  0.1139 ( 12)  0.1139 ( 14)
           0.1153 ( 19) -0.1663 ( 23)  0.1526 ( 24)  0.1037 ( 25)  0.1644 ( 31)
           0.1102 ( 34)  0.1323 ( 35) -0.1433 ( 39)  0.2527 ( 55) -0.1354 ( 56)
          -0.1906 ( 58) -0.1660 ( 62)  0.1522 ( 64) -0.1189 ( 72)  0.1395 ( 77)
           0.1150 ( 89)  0.1329 ( 93) -0.1010 ( 96) -0.1148 ( 98) -0.1386 ( 99)
          -0.1187 (115)  0.1037 (117)  0.1117 (120)  0.1587 (126)
 CRD 15=  -0.1174 (  2) -0.1381 (  5) -0.1289 (  9) -0.2154 ( 10) -0.2009 ( 11)
          -0.2115 ( 12) -0.2115 ( 14)  0.1243 ( 21) -0.1021 ( 23)  0.1240 ( 25)
           0.1692 ( 35)  0.1146 ( 42) -0.1165 ( 48) -0.1725 ( 52) -0.1725 ( 53)
          -0.1251 ( 54) -0.1196 ( 55)  0.1520 ( 56) -0.1263 ( 67)  0.1108 ( 69)
           0.1226 ( 71)  0.1534 ( 73)  0.1581 ( 77)  0.1027 ( 88) -0.1006 ( 91)
           0.1317 ( 92)  0.1029 ( 95) -0.1302 ( 96)  0.1829 (112)  0.2416 (113)
           0.1487 (120)  0.1764 (126)
 CRD 16=   0.3638 (  6)  0.1937 (  9)  0.1745 ( 10)  0.3376 ( 11) -0.1178 ( 15)
          -0.1728 ( 26)  0.1979 ( 30)  0.1013 ( 31) -0.1572 ( 34)  0.1297 ( 42)
          -0.1293 ( 45) -0.2188 ( 48) -0.1293 ( 49)  0.1565 ( 54) -0.1482 ( 58)
           0.1207 ( 72)  0.1326 ( 76)  0.1052 ( 84) -0.1336 ( 92) -0.1238 ( 95)
           0.1081 (110)  0.1049 (115)  0.1102 (116)  0.1364 (120)  0.1127 (121)
           0.1069 (126)
 CRD 17=  -0.1995 (  6) -0.2987 (  8) -0.1164 (  9)  0.2034 ( 10) -0.3341 ( 11)
          -0.1179 ( 16) -0.1061 ( 18)  0.1776 ( 31) -0.1927 ( 34) -0.1635 ( 39)
           0.1285 ( 40)  0.1942 ( 54) -0.2157 ( 57) -0.1017 ( 65)  0.1003 ( 67)
           0.1317 ( 72)  0.1243 ( 76)  0.1537 ( 79) -0.2053 ( 92) -0.2029 ( 95)
           0.1051 (112)  0.1299 (113)  0.1178 (115)  0.1287 (116)  0.1172 (119)
 CRD 18=  -0.1552 (  1)  0.1792 (  3) -0.2319 (  5)  0.1341 (  7)  0.1577 (  8)
           0.2357 ( 11) -0.4178 ( 16) -0.1300 ( 18) -0.1445 ( 20)  0.1180 ( 47)
          -0.1098 ( 56) -0.1084 ( 66) -0.1129 ( 72)  0.1437 ( 73)  0.1645 ( 74)
           0.1048 ( 75) -0.1333 ( 78) -0.1376 ( 81) -0.1035 (104)  0.1173 (110)
           0.1271 (112)  0.1062 (113) -0.1244 (115) -0.1604 (116)  0.1321 (118)
           0.1112 (119)  0.1103 (125)
 CRD 19=  -0.3881 (  1)  0.4951 (  3)  0.1643 (  8) -0.1054 ( 10) -0.1007 ( 11)
           0.1873 ( 16)  0.1269 ( 22) -0.1483 ( 23) -0.1121 ( 24)  0.1350 ( 26)
           0.1395 ( 39) -0.1268 ( 40) -0.1424 ( 42)  0.1850 ( 44)  0.1492 ( 54)
          -0.1101 ( 57) -0.1086 ( 67)  0.1150 ( 75)  0.2109 ( 76)  0.1838 ( 79)
          -0.2154 ( 82) -0.2374 ( 85)  0.1051 ( 96)
 CRD 20=   0.2359 (  5) -0.4588 (  7)  0.1536 (  8) -0.1523 ( 17) -0.1748 ( 18)
           0.1105 ( 21)  0.1337 ( 22) -0.1090 ( 23) -0.1553 ( 26) -0.1234 ( 31)
           0.1362 ( 34)  0.1239 ( 39) -0.1400 ( 40)  0.1061 ( 55)  0.1712 ( 73)
           0.1736 ( 74)  0.1042 ( 77)  0.1528 ( 91)  0.1452 ( 96)  0.1226 (112)
           0.1202 (113)  0.1154 (114)  0.1092 (117)  0.1487 (118)  0.1462 (119)
           0.1097 (120)
 CRD 21=   0.1948 (  5) -0.1129 (  7) -0.2041 ( 11)  0.1055 ( 15) -0.2091 ( 16)
           0.4299 ( 17)  0.3758 ( 18)  0.4024 ( 19)  0.1221 ( 20)  0.1107 ( 24)
          -0.1588 ( 55) -0.1784 ( 56) -0.1430 ( 58)  0.1730 ( 63)  0.1621 ( 64)
           0.1581 ( 65)  0.1153 (106)  0.1026 (109)
 CRD 22=  -0.1514 (  5) -0.1193 (  6)  0.2433 ( 11)  0.1380 ( 12)  0.1380 ( 14)
           0.4982 ( 16)  0.2041 ( 17)  0.2330 ( 18)  0.1908 ( 19) -0.3240 ( 20)
          -0.1263 ( 21)  0.1018 ( 47)  0.1245 ( 48) -0.1281 ( 66)  0.1399 ( 73)
           0.1597 ( 74)  0.1084 (104)  0.1218 (112)  0.1021 (113)  0.1815 (118)
           0.1618 (119)
 CRD 23=  -0.1417 (  7)  0.1222 (  8) -0.1160 ( 16)  0.1294 ( 18)  0.1882 ( 19)
           0.1166 ( 74)  0.1067 ( 77) -0.2472 ( 86) -0.2482 ( 87) -0.2481 ( 88)
          -0.2452 (101) -0.2463 (102) -0.2461 (103)  0.1039 (112)  0.1186 (118)
          -0.3258 (123) -0.3256 (124) -0.3247 (125)
 CRD 24=  -0.2081 (  5)  0.2061 ( 11)  0.1183 ( 13)  0.1064 ( 19)  0.4478 ( 20)
           0.5415 ( 21) -0.1142 ( 24) -0.1332 ( 47) -0.1156 ( 48)  0.2729 ( 66)
           0.1465 ( 74) -0.1430 (106) -0.1041 (107) -0.1350 (109)  0.1115 (112)
           0.1372 (118)
 CRD 25=  -0.1268 (  1)  0.1437 (  5) -0.1374 (  7) -0.2703 (  8)  0.1687 ( 10)
           0.1062 ( 13)  0.3624 ( 16) -0.1416 ( 19)  0.2067 ( 20)  0.2964 ( 21)
          -0.2060 ( 22)  0.1750 ( 23)  0.1190 ( 24) -0.1047 ( 26) -0.1743 (104)
          -0.1872 (105)  0.1221 (106)  0.1360 (107)  0.1135 (109)  0.1275 (110)
          -0.1938 (114) -0.2030 (115) -0.1901 (116) -0.1809 (117)  0.1207 (118)
 CRD 26=   0.1102 (  1) -0.3122 (  7) -0.1210 ( 16)  0.1021 ( 18) -0.1643 ( 20)
          -0.1048 ( 21) -0.1591 ( 24)  0.1291 ( 26)  0.1048 ( 31) -0.1088 ( 34)
          -0.1176 ( 39) -0.1686 ( 42)  0.1926 ( 44) -0.1227 ( 85)  0.1217 ( 87)
          -0.1807 ( 89) -0.1349 ( 90) -0.1114 ( 93) -0.1353 ( 94) -0.1049 ( 97)
          -0.1593 ( 98) -0.1284 ( 99) -0.2047 (100)  0.1441 (102) -0.1280 (106)
          -0.1473 (107) -0.1466 (108) -0.1331 (109) -0.1524 (110) -0.1518 (111)
          -0.1220 (115) -0.1100 (116)  0.1632 (123)  0.1049 (125)
 CRD 27=   0.1391 (  1)  0.1375 (  3) -0.1534 (  8) -0.1552 ( 10) -0.5468 ( 17)
           0.4707 ( 19)  0.2932 ( 63) -0.2573 ( 64)  0.1384 ( 86) -0.1722 ( 87)
           0.1534 (101) -0.1573 (102)  0.1131 (103) -0.1601 (123)  0.1103 (124)
           0.1506 (125)
 CRD 28=   0.1252 (  3) -0.1266 (  8) -0.1153 ( 10)  0.2821 ( 17) -0.6187 ( 18)
           0.3020 ( 19) -0.1533 ( 63) -0.1753 ( 64)  0.3303 ( 65) -0.1746 ( 86)
           0.1759 ( 88) -0.1884 (101)  0.1622 (103)  0.1636 (124) -0.1869 (125)
 CRD 29=   0.5042 (  1)  0.5076 (  3) -0.1420 (  5) -0.1099 (  7) -0.2344 (  8)
          -0.1888 ( 10)  0.1144 ( 18) -0.2254 ( 19) -0.1003 ( 40)  0.1896 ( 41)
           0.1239 ( 64) -0.1200 ( 88)  0.1444 ( 94)  0.1498 ( 97) -0.1069 (103)
          -0.1174 (124)
 CRD 30=   0.1153 (  3) -0.4282 (  5) -0.3349 (  7)  0.3912 (  8)  0.4920 ( 10)
          -0.1577 ( 50)  0.1730 ( 60)  0.1206 ( 94)
 CRD 31=   0.3447 (  1)  0.2429 (  3)  0.4433 (  5)  0.3694 (  7)  0.2940 (  8)
           0.3105 ( 10)  0.1115 ( 41)  0.1829 ( 50)  0.1305 ( 60) -0.1151 ( 93)
          -0.1554 ( 98) -0.1024 (106)
 CRD 32=   0.1760 (  5) -0.2088 (  7)  0.3532 (  8) -0.3380 ( 10)  0.1082 ( 16)
           0.1196 ( 31) -0.1410 ( 34) -0.1368 ( 39)  0.1267 ( 40) -0.1116 ( 76)
          -0.1359 ( 89) -0.1859 ( 90) -0.1066 ( 91) -0.2013 ( 93) -0.1299 ( 94)
          -0.1183 ( 96) -0.1900 ( 97) -0.1415 ( 98) -0.1746 ( 99) -0.1475 (100)
           0.1109 (104)  0.1065 (105)  0.1394 (106)  0.1439 (107)  0.1284 (108)
           0.1481 (115)  0.1525 (116)
 CRD 33=   0.2647 (  1) -0.2872 (  3)  0.1445 (  5) -0.1348 (  7) -0.1020 (  8)
           0.1023 ( 10)  0.1183 ( 75)  0.1869 ( 76)  0.1817 ( 79) -0.1224 ( 81)
          -0.1741 ( 82) -0.1956 ( 85) -0.2383 ( 89)  0.2129 ( 90) -0.1651 ( 91)
           0.1496 ( 92)  0.2181 ( 93) -0.2168 ( 94)  0.1429 ( 95) -0.1540 ( 96)
           0.2114 ( 97) -0.2056 ( 98)  0.2062 ( 99) -0.2272 (100)  0.1010 (107)
 CRD 34=  -0.2878 ( 11) -0.5085 ( 13)  0.1195 ( 16)  0.2122 ( 20)  0.1810 ( 21)
           0.1594 ( 30)  0.3418 ( 47)  0.3019 ( 48) -0.1084 ( 61) -0.1606 ( 66)
          -0.1443 ( 73)  0.1853 ( 74)  0.1062 ( 84)  0.1584 (112) -0.1712 (113)
          -0.2341 (119)  0.1015 (120)  0.1077 (121)
 CRD 35=  -0.1642 (  1)  0.1424 (  3)  0.1370 (  5) -0.1367 (  6) -0.1561 (  7)
          -0.1527 (  8) -0.1581 (  9)  0.1520 ( 10)  0.3856 ( 11)  0.2039 ( 17)
           0.1391 ( 18)  0.1477 ( 19)  0.2339 ( 20) -0.2005 ( 21)  0.1145 ( 30)
          -0.1084 ( 52) -0.1084 ( 53)  0.1235 ( 55)  0.1478 ( 56)  0.1740 ( 58)
          -0.1221 ( 63) -0.1608 ( 64) -0.1738 ( 65)  0.1543 ( 77) -0.1213 (118)
          -0.1731 (119)  0.1649 (120)  0.1183 (126)
 CRD 36=   0.1623 (  9)  0.1233 ( 10) -0.3573 ( 11) -0.1273 ( 12)  0.1639 ( 13)
          -0.1273 ( 14) -0.1114 ( 15)  0.1467 ( 16)  0.2275 ( 19) -0.2003 ( 20)
          -0.1164 ( 26) -0.1187 ( 36)  0.1189 ( 45)  0.1189 ( 49)  0.1752 ( 55)
           0.1278 ( 56) -0.1103 ( 60)  0.1227 ( 61) -0.1835 ( 63) -0.1461 ( 65)
           0.1387 ( 66)  0.1496 ( 71) -0.1321 ( 84) -0.1093 ( 99)  0.1053 (105)
          -0.1055 (106)  0.1288 (110)  0.2164 (111) -0.1457 (119) -0.1196 (120)
           0.1210 (123)
 CRD 37=   0.1827 (  1) -0.2570 (  3) -0.2435 (  5)  0.2199 (  7)  0.2572 (  8)
          -0.1848 ( 10)  0.2477 ( 13)  0.3330 ( 16)  0.1110 ( 17)  0.1259 ( 19)
           0.1498 ( 20) -0.1328 ( 21)  0.1354 ( 23) -0.1044 ( 61) -0.1537 ( 65)
          -0.1061 ( 71)  0.1221 ( 73)  0.1387 ( 84)  0.1308 ( 91) -0.1556 (104)
          -0.1324 (116)  0.1770 (120)
 CRD 38=   0.1304 ( 13)  0.3708 ( 15) -0.1976 ( 17) -0.1700 ( 18) -0.1047 ( 19)
           0.2766 ( 20) -0.4561 ( 21) -0.1452 ( 48) -0.1020 ( 52) -0.1020 ( 53)
          -0.1575 ( 55) -0.1703 ( 56) -0.1787 ( 58)  0.1433 ( 63)  0.2154 ( 64)
           0.1624 ( 65)  0.1764 ( 66)  0.1504 ( 74)  0.1152 (111)  0.1719 (112)
          -0.1026 (119)
 CRD 39=  -0.1673 (  1)  0.1132 (  9)  0.2574 ( 15)  0.1552 ( 16) -0.1736 ( 18)
          -0.3326 ( 20)  0.3864 ( 21)  0.1328 ( 22)  0.1314 ( 23) -0.1066 ( 39)
           0.1253 ( 41) -0.1036 ( 44) -0.1211 ( 47)  0.1107 ( 48) -0.1297 ( 54)
          -0.1010 ( 58) -0.1027 ( 61)  0.1264 ( 63)  0.1414 ( 64)  0.1198 ( 89)
          -0.1382 ( 96) -0.1863 ( 98)  0.1170 ( 99) -0.1481 (112)  0.1302 (114)
          -0.1679 (118) -0.1029 (122)
 CRD 40=   0.1387 (  2) -0.1038 (  4)  0.1351 ( 10) -0.1716 ( 13)  0.2963 ( 20)
           0.1201 ( 31)  0.1403 ( 34) -0.4050 ( 66)  0.2559 ( 73) -0.2146 ( 74)
           0.1081 ( 92)  0.1303 ( 93) -0.1835 ( 99) -0.1482 (106) -0.2001 (112)
           0.2704 (113) -0.2195 (118)  0.2511 (119)
 CRD 41=   0.3083 (  2) -0.3104 (  4) -0.1330 (  5)  0.1379 (  6) -0.1572 (  9)
          -0.1346 ( 15) -0.1452 ( 20)  0.1909 ( 31)  0.1700 ( 34) -0.1849 ( 39)
          -0.1977 ( 40) -0.1234 ( 42)  0.1114 ( 50) -0.1031 ( 60)  0.1817 ( 66)
          -0.1617 ( 73) -0.1149 ( 82)  0.1995 ( 89)  0.1579 ( 91)  0.1164 ( 92)
           0.1692 ( 93) -0.1153 ( 95) -0.2312 ( 98) -0.2092 ( 99)  0.1115 (109)
           0.1100 (112) -0.1213 (113)  0.1344 (118)
 CRD 42=   0.1420 (  4) -0.2213 (  6) -0.1448 (  9)  0.1694 ( 12)  0.1694 ( 14)
           0.1971 ( 17) -0.1537 ( 19) -0.2035 ( 24) -0.1861 ( 26)  0.1092 ( 34)
          -0.1237 ( 41)  0.1950 ( 42)  0.1688 ( 44)  0.1906 ( 63)  0.1103 ( 82)
          -0.1212 ( 85)  0.1214 ( 86) -0.1187 ( 89)  0.1376 ( 90)  0.1138 ( 92)
           0.1128 ( 94) -0.1727 ( 97)  0.1383 ( 98)  0.1701 (101) -0.1324 (106)
          -0.1539 (107) -0.1564 (108)  0.1470 (109)  0.1255 (110)  0.1230 (111)
          -0.1055 (113) -0.1788 (123)
 CRD 43=   0.1841 (  1) -0.2095 (  6) -0.2992 (  9)  0.1598 ( 11)  0.2194 ( 15)
          -0.1521 ( 20)  0.1437 ( 21) -0.1416 ( 22) -0.1429 ( 23)  0.1161 ( 30)
           0.1006 ( 39) -0.1536 ( 41) -0.1104 ( 47) -0.1532 ( 52) -0.1532 ( 53)
           0.2215 ( 54)  0.1613 ( 57) -0.1185 ( 61)  0.1121 ( 64)  0.1623 ( 76)
          -0.1037 ( 88) -0.1101 ( 90)  0.1392 ( 93) -0.1049 ( 95)  0.1485 ( 96)
           0.1323 ( 98) -0.1936 ( 99)  0.1614 (100) -0.1141 (105) -0.1497 (115)
          -0.1789 (118) -0.1628 (119)
 CRD 44=  -0.1062 (  1)  0.1794 (  3)  0.1344 (  5) -0.1413 (  7) -0.1919 ( 15)
           0.1608 ( 16)  0.1516 ( 17) -0.2742 ( 18)  0.1955 ( 19)  0.1073 ( 56)
           0.1213 ( 57)  0.1039 ( 64) -0.2624 ( 65)  0.1267 ( 83)  0.1229 ( 85)
           0.1151 ( 86) -0.2270 ( 88) -0.1339 ( 91)  0.1590 ( 92)  0.1653 ( 93)
           0.1020 ( 97)  0.1996 (101) -0.1425 (103) -0.1005 (105) -0.1015 (107)
          -0.1328 (108) -0.1241 (110) -0.1554 (111) -0.1935 (124)  0.1487 (125)
 CRD 45=  -0.1191 (  1)  0.1267 (  2)  0.1666 (  4) -0.1600 (  5)  0.1481 (  6)
          -0.1078 (  7) -0.1938 ( 11)  0.2420 ( 12)  0.1011 ( 13)  0.2420 ( 14)
           0.1557 ( 17) -0.1566 ( 19) -0.1060 ( 22) -0.1095 ( 23)  0.1154 ( 30)
          -0.1150 ( 31) -0.1004 ( 42) -0.1237 ( 44)  0.2167 ( 50)  0.1134 ( 60)
           0.1122 ( 63) -0.1271 ( 64) -0.1080 ( 69)  0.1150 ( 73) -0.1393 ( 82)
           0.1469 ( 85) -0.1637 ( 87) -0.2012 ( 94)  0.1108 ( 95)  0.1061 ( 97)
          -0.1755 ( 98)  0.1024 ( 99)  0.1108 (100) -0.1388 (102)  0.1202 (104)
          -0.1367 (106)  0.1093 (111)  0.1134 (116)  0.1330 (117) -0.1498 (118)
          -0.1361 (123)
 CRD 46=   0.1596 (  2)  0.1312 (  4) -0.1097 (  7) -0.1840 ( 10)  0.1487 ( 12)
           0.1487 ( 14) -0.1133 ( 15) -0.2421 ( 17)  0.2272 ( 19) -0.1082 ( 24)
           0.1249 ( 50) -0.1121 ( 55)  0.1551 ( 58)  0.1851 ( 60) -0.2096 ( 63)
           0.1519 ( 64)  0.1316 ( 79) -0.1187 ( 86)  0.2087 ( 87)  0.1729 ( 90)
           0.1397 ( 99) -0.1028 (101)  0.2245 (102) -0.1317 (105) -0.1005 (106)
          -0.1312 (107) -0.1318 (108)  0.1171 (109) -0.1388 (114)  0.1877 (123)
          -0.1396 (125)
 CRD 47=   0.1632 (  5) -0.2405 (  7)  0.2622 (  8) -0.1609 ( 10) -0.1314 ( 19)
           0.1317 ( 23) -0.1344 ( 24)  0.1011 ( 26)  0.1225 ( 43)  0.1225 ( 46)
           0.1031 ( 54) -0.1062 ( 57) -0.1140 ( 64)  0.1063 ( 67)  0.1000 ( 69)
           0.1479 ( 71)  0.1952 ( 76)  0.1315 ( 79)  0.1112 ( 82) -0.1371 ( 84)
           0.1666 ( 85)  0.1426 ( 88)  0.1822 ( 89)  0.1300 ( 93)  0.1268 ( 94)
           0.1244 ( 97)  0.1299 (100)  0.1269 (103) -0.1693 (104) -0.1168 (106)
          -0.1505 (107) -0.1413 (116) -0.1206 (117) -0.1461 (120)  0.1211 (124)
 CRD 48=   0.2479 (  2) -0.2138 (  3) -0.1059 ( 10) -0.1528 ( 12) -0.1830 ( 13)
          -0.1528 ( 14)  0.1217 ( 15) -0.1936 ( 18) -0.1257 ( 30) -0.1184 ( 36)
          -0.1145 ( 40)  0.1812 ( 41)  0.1134 ( 60)  0.1064 ( 61) -0.1250 ( 65)
           0.1349 ( 71)  0.1252 ( 78) -0.1613 ( 84)  0.1649 ( 86)  0.1549 ( 89)
           0.2048 ( 91) -0.1639 ( 92) -0.1457 ( 93)  0.1967 ( 94)  0.1160 (101)
          -0.1313 (103) -0.1076 (105)  0.1240 (111) -0.1881 (114) -0.1501 (115)
           0.1496 (125)
 CRD 49=   0.2499 (  1) -0.1367 (  2) -0.1986 (  4)  0.2078 (  6)  0.1627 (  9)
          -0.1270 ( 25)  0.1118 ( 26)  0.2129 ( 29) -0.2349 ( 41)  0.1195 ( 60)
           0.2054 ( 79) -0.1764 ( 82)  0.2363 ( 90) -0.1989 ( 94) -0.2092 ( 95)
           0.1839 ( 96) -0.3213 ( 97)  0.3048 (100)
 CRD 50=  -0.2119 (  2)  0.2347 (  4) -0.1346 (  5)  0.1754 (  6) -0.1126 (  7)
          -0.1668 (  9)  0.1574 ( 10)  0.1392 ( 25) -0.1380 ( 27) -0.1256 ( 30)
          -0.1464 ( 34)  0.1118 ( 36)  0.1199 ( 39)  0.1921 ( 50) -0.1898 ( 60)
          -0.1183 ( 67)  0.1227 ( 76) -0.1386 ( 82)  0.1489 ( 87) -0.2287 ( 90)
          -0.1293 ( 94)  0.1328 ( 97)  0.1837 (100)  0.1147 (102) -0.1097 (104)
           0.1232 (105) -0.1162 (107) -0.1035 (108)  0.1692 (109)  0.1113 (110)
           0.1240 (111)  0.1462 (115) -0.1670 (117)
 CRD 51=   0.1737 (  6) -0.2463 (  9) -0.1931 ( 11)  0.1876 ( 15) -0.1082 ( 17)
          -0.2040 ( 32) -0.2040 ( 33)  0.1800 ( 37)  0.1800 ( 38) -0.1854 ( 43)
          -0.1854 ( 46)  0.2003 ( 52)  0.2003 ( 53)  0.1033 ( 68)  0.1312 ( 77)
          -0.1571 ( 78) -0.1047 ( 80)  0.1702 (102)  0.1127 (103) -0.1395 (109)
          -0.1213 (111) -0.1388 (112) -0.1240 (113)  0.1596 (120) -0.1287 (121)
          -0.1143 (125)  0.1897 (126)
 CRD 52=  -0.1425 (  3)  0.1521 (  5)  0.1003 ( 10)  0.3145 ( 12)  0.3145 ( 14)
          -0.1014 ( 16)  0.1228 ( 26)  0.1151 ( 27)  0.1713 ( 30)  0.1006 ( 36)
          -0.1086 ( 50) -0.1096 ( 52) -0.1096 ( 53) -0.1491 ( 67)  0.1880 ( 71)
           0.1596 ( 73)  0.1371 ( 75) -0.1364 ( 81)  0.1068 ( 89) -0.1369 ( 90)
          -0.1118 ( 93)  0.1909 ( 94)  0.1592 (108) -0.2346 (109) -0.1467 (110)
           0.1154 (115) -0.1466 (118)
 CRD 53=  -0.1380 (  3) -0.1452 (  7) -0.1559 (  8) -0.1306 ( 12) -0.1306 ( 14)
           0.1170 ( 16) -0.1198 ( 23) -0.1139 ( 24)  0.1020 ( 31) -0.1034 ( 40)
           0.1075 ( 42) -0.1195 ( 68)  0.1511 ( 69)  0.1549 ( 70) -0.1091 ( 72)
           0.2053 ( 75) -0.1426 ( 78) -0.2164 ( 81)  0.1630 ( 84) -0.1760 ( 86)
          -0.1463 ( 87)  0.1700 ( 89) -0.1156 ( 90) -0.1742 ( 93)  0.1256 ( 94)
          -0.1278 ( 97)  0.1167 (100) -0.2522 (108) -0.1703 (111)  0.1196 (114)
           0.1062 (116)  0.2229 (117)
 CRD 54=  -0.1662 ( 13)  0.1579 ( 16) -0.1454 ( 45) -0.1454 ( 49)  0.1081 ( 51)
           0.1081 ( 59)  0.1009 ( 61) -0.1828 ( 68) -0.1909 ( 70)  0.1272 ( 71)
           0.1241 ( 77)  0.2412 ( 80)  0.1138 ( 83) -0.1842 ( 86) -0.1180 ( 87)
           0.1159 (101)  0.1821 (102)  0.2383 (103) -0.1488 (105) -0.1128 (107)
           0.2053 (108) -0.1502 (110)  0.1679 (111)  0.1249 (114)  0.1765 (117)
          -0.1971 (120) -0.3497 (121) -0.1559 (122)

 THE DETERMINANT OF THE G MATRIX IS 10**(   -15)


                     --------------------
                     INTERNAL COORDINATES
                     --------------------

                 - - ATOMS - -         COORDINATE      COORDINATE
 NO.   TYPE    I  J  K  L  M  N        (BOHR,RAD)       (ANG,DEG)
 ----------------------------------------------------------------
   1 STRETCH   1  4                     2.0535594       1.0866969
   2 STRETCH   1  3                     2.9321116       1.5516068
   3 STRETCH   1  5                     2.0549473       1.0874314
   4 STRETCH   1  2                     2.9341756       1.5526990
   5 STRETCH   2  7                     2.0565034       1.0882548
   6 STRETCH   2  6                     2.8898013       1.5292171
   7 STRETCH   2  8                     2.0573597       1.0887080
   8 STRETCH   3 10                     2.0519144       1.0858264
   9 STRETCH   3  9                     2.9390428       1.5552746
  10 STRETCH   3 11                     2.0554154       1.0876791
  11 STRETCH   6 12                     2.0412076       1.0801606
  12 STRETCH   6  9                     2.6708854       1.4133718
  13 STRETCH   6 17                     3.9306299       2.0799999
  14 STRETCH   6  9                     2.6708854       1.4133718
  15 STRETCH   9 13                     2.9051704       1.5373501
  16 STRETCH   9 19                     3.7983490       2.0099999
  17 STRETCH  13 15                     2.0517706       1.0857503
  18 STRETCH  13 14                     2.0580256       1.0890603
  19 STRETCH  13 16                     2.0502594       1.0849506
  20 STRETCH  17 20                     2.1785285       1.1528277
  21 STRETCH  17 18                     2.1782266       1.1526679
  22 BEND      1  3 10                  1.9359211     110.9201105
  23 BEND      1  3 11                  1.9560025     112.0706879
  24 BEND      1  2  7                  1.9443056     111.4005058
  25 BEND      1  3  9                  1.8298726     104.8439758
  26 BEND      1  2  8                  1.9402799     111.1698514
  27 BEND      1  2  6                  1.8119259     103.8157089
  28 BEND      2  6 17                  1.9684980     112.7866278
  29 BEND      2  1  3                  1.8461872     105.7787336
  30 BEND      2  6 12                  2.1245649     121.7286020
  31 BEND      2  1  5                  1.9115328     109.5227590
  32 BEND      2  6  9                  1.9541093     111.9622151
  33 BEND      2  6  9                  1.9541093     111.9622151
  34 BEND      2  1  4                  1.9620463     112.4169696
  35 BEND      3  9 19                  1.5940138      91.3302651
  36 BEND      3  9 13                  2.0938257     119.9673776
  37 BEND      3  9  6                  1.8910116     108.3469851
  38 BEND      3  9  6                  1.8910116     108.3469851
  39 BEND      3  1  5                  1.9127385     109.5918444
  40 BEND      3  1  4                  1.9501047     111.7327707
  41 BEND      4  1  5                  1.8810299     107.7750744
  42 BEND      6  2  8                  1.9654541     112.6122240
  43 BEND      6  9 13                  2.1063316     120.6839108
  44 BEND      6  2  7                  1.9301998     110.5923039
  45 BEND      6  9 19                  2.2093120     126.5842520
  46 BEND      6  9 13                  2.1063316     120.6839108
  47 BEND      6 17 18                  1.8473500     105.8453570
  48 BEND      6 17 20                  1.8533380     106.1884440
  49 BEND      6  9 19                  2.2093120     126.5842520
  50 BEND      7  2  8                  1.8729862     107.3142068
  51 BEND      9  6 17                  1.2452656      71.3484616
  52 BEND      9  6 12                  2.1192898     121.4263610
  53 BEND      9  6 12                  2.1192898     121.4263610
  54 BEND      9  3 11                  1.9208552     110.0568973
  55 BEND      9 13 16                  1.9452489     111.4545501
  56 BEND      9 13 14                  1.8936322     108.4971338
  57 BEND      9  3 10                  1.9412294     111.2242509
  58 BEND      9 13 15                  1.9315599     110.6702316
  59 BEND      9  6 17                  1.2452656      71.3484616
  60 BEND     10  3 11                  1.8807713     107.7602593
  61 BEND     12  6 17                  1.8339105     105.0753289
  62 BEND     13  9 19                  1.5024693      86.0851499
  63 BEND     14 13 16                  1.8989132     108.7997123
  64 BEND     14 13 15                  1.8919712     108.4019633
  65 BEND     15 13 16                  1.9015010     108.9479841
  66 BEND     18 17 20                  2.2878888     131.0863713
  67 TORSION   1  3  9 13               2.2841859     130.8742111
  68 TORSION   1  3  9  6              -0.2338596     -13.3991682
  69 TORSION   1  2  6 17               1.6178246      92.6945206
  70 TORSION   1  2  6  9               0.2531077      14.5020041
  71 TORSION   1  2  6 12              -2.4617506    -141.0479168
  72 TORSION   1  3  9 19              -2.4936917    -142.8780098
  73 TORSION   2  6 17 18               0.0586446       3.3600897
  74 TORSION   2  6 17 20               2.5464023     145.8981022
  75 TORSION   2  1  3  9               0.3827455      21.9297014
  76 TORSION   2  1  3 11               2.4659862     141.2906007
  77 TORSION   2  6  9 19               1.8380702     105.3136657
  78 TORSION   2  6  9 13              -2.5257424    -144.7143778
  79 TORSION   2  1  3 10              -1.7142630     -98.2200328
  80 TORSION   2  6  9  3              -0.0129881      -0.7441645
  81 TORSION   3  1  2  6              -0.3856182     -22.0942956
  82 TORSION   3  1  2  8               1.7318386      99.2270399
  83 TORSION   3  9  6 17              -1.8933428    -108.4805498
  84 TORSION   3  9  6 12               2.7033415     154.8900594
  85 TORSION   3  1  2  7              -2.4632255    -141.1324242
  86 TORSION   3  9 13 16               0.8338614      47.7767404
  87 TORSION   3  9 13 14              -1.2565981     -71.9977673
  88 TORSION   3  9 13 15               2.9528617     169.1865122
  89 TORSION   4  1  2  7               1.6872632      96.6730627
  90 TORSION   4  1  3 10               0.4260609      24.4114942
  91 TORSION   4  1  2  6              -2.5183148    -144.2888087
  92 TORSION   4  1  3  9               2.5230694     144.5612285
  93 TORSION   4  1  3 11              -1.6768752     -96.0778722
  94 TORSION   4  1  2  8              -0.4008580     -22.9674732
  95 TORSION   5  1  3  9              -1.6764135     -96.0514204
  96 TORSION   5  1  2  6               1.6743463      95.9329752
  97 TORSION   5  1  3 11               0.4068272      23.3094790
  98 TORSION   5  1  2  8              -2.4913823    -142.7456893
  99 TORSION   5  1  3 10               2.5097633     143.7988454
 100 TORSION   5  1  2  7              -0.4032610     -23.1051534
 101 TORSION   6  9 13 16              -3.0080538    -172.3487870
 102 TORSION   6  9 13 14               1.1846720      67.8767054
 103 TORSION   6  9 13 15              -0.8890535     -50.9390152
 104 TORSION   6  9  3 11              -2.3405179    -134.1017967
 105 TORSION   6  9  3 10               1.8596132     106.5479853
 106 TORSION   7  2  6 17              -2.5781119    -147.7149330
 107 TORSION   7  2  6  9               2.3403565     134.0925506
 108 TORSION   7  2  6 12              -0.3745018     -21.4573703
 109 TORSION   8  2  6 17              -0.4826871     -27.6559360
 110 TORSION   8  2  6  9              -1.8474040    -105.8484524
 111 TORSION   8  2  6 12               1.7209230      98.6016267
 112 TORSION   9  6 17 20              -1.8755770    -107.4626441
 113 TORSION   9  6 17 18               1.9198507     109.9993433
 114 TORSION  10  3  9 13              -1.9055267    -109.1786353
 115 TORSION  10  3  9 19              -0.4002189     -22.9308563
 116 TORSION  11  3  9 19               1.6828353      96.4193617
 117 TORSION  11  3  9 13               0.1775276      10.1715826
 118 TORSION  12  6 17 20               0.1947327      11.1573632
 119 TORSION  12  6 17 18              -2.2930249    -131.3806493
 120 TORSION  12  6  9 19              -1.7287855     -99.0521104
 121 TORSION  12  6  9 13               0.1905873      10.9198461
 122 TORSION  13  9  6 17               1.8770883     107.5492368
 123 TORSION  14 13  9 19              -2.8147966    -161.2759665
 124 TORSION  15 13  9 19               1.3946632      79.9083129
 125 TORSION  16 13  9 19              -0.7243371     -41.5014589
 126 TORSION  17  6  9 19              -0.0422844      -2.4227197

     ------------------------------------------
     THE POINT GROUP IS C1 , NAXIS= 0, ORDER= 1
     ------------------------------------------

     DIMENSIONS OF THE SYMMETRY SUBSPACES ARE
 A   =   48

 ..... DONE SETTING UP THE RUN .....
 STEP CPU TIME =     0.08 TOTAL CPU TIME =          0.1 (      0.0 MIN)
 TOTAL WALL CLOCK TIME=          0.2 SECONDS, CPU UTILIZATION IS    36.36%


          -----------------------------
          STATIONARY POINT LOCATION RUN
          -----------------------------

 OBTAINING INITIAL HESSIAN, HESS=CALC    

     ---------------------------------
     HESSIAN MATRIX CONTROL PARAMETERS
     ---------------------------------
     METHOD=ANALYTIC   NVIB  =       2   VIBSIZ= 0.01000
     RDHESS=       F   PURIFY=       F   PRTIFC=       F
     VIBANL=       F   DECOMP=       F   PROJCT=       F
     SCLFAC= 1.00000   PRTSCN=       F   NPRT  =       0
     PULCOR=       F   NPUN  =       0   REDOVB=       T
     HSSTYP=GENERAL 
 Old integral subroutine is used

     ------------------------------
     CPHF RESPONSE SOLUTION OPTIONS
     ------------------------------
     POLAR  =       F     NWORD  =       0
     CPHF   =AO      

          ********************
          1 ELECTRON INTEGRALS
          ********************
 ...... END OF ONE-ELECTRON INTEGRALS ......
 STEP CPU TIME =     0.03 TOTAL CPU TIME =          0.1 (      0.0 MIN)
 TOTAL WALL CLOCK TIME=          0.2 SECONDS, CPU UTILIZATION IS    44.00%

          -------------
          GUESS OPTIONS
          -------------
          GUESS =HUCKEL            NORB  =       0          NORDER=       0
          MIX   =       F          PRTMO =       F          PUNMO =       F
          TOLZ  = 1.0E-08          TOLE  = 1.0E-05
          SYMDEN=       F          PURIFY=       F

 INITIAL GUESS ORBITALS GENERATED BY HUCKEL   ROUTINE.
 HUCKEL GUESS REQUIRES     39252 WORDS.

 SYMMETRIES FOR INITIAL GUESS ORBITALS FOLLOW.   BOTH SET(S).
    27 ORBITALS ARE OCCUPIED (    7 CORE ORBITALS).
     8=A        9=A       10=A       11=A       12=A       13=A       14=A   
    15=A       16=A       17=A       18=A       19=A       20=A       21=A   
    22=A       23=A       24=A       25=A       26=A       27=A       28=A   
    29=A       30=A       31=A       32=A       33=A       34=A       35=A   
    36=A       37=A   
 ...... END OF INITIAL ORBITAL SELECTION ......
 STEP CPU TIME =     0.01 TOTAL CPU TIME =          0.1 (      0.0 MIN)
 TOTAL WALL CLOCK TIME=          0.3 SECONDS, CPU UTILIZATION IS    44.44%

                    ----------------------
                    AO INTEGRAL TECHNOLOGY
                    ----------------------
     S,P,L SHELL ROTATED AXIS INTEGRALS, REPROGRAMMED BY
        KAZUYA ISHIMURA (IMS) AND JOSE SIERRA (SYNSTAR).
     S,P,D,L SHELL ROTATED AXIS INTEGRALS PROGRAMMED BY
        KAZUYA ISHIMURA (INSTITUTE FOR MOLECULAR SCIENCE).
     S,P,D,F,G SHELL TO TOTAL QUARTET ANGULAR MOMENTUM SUM 5,
        ERIC PROGRAM BY GRAHAM FLETCHER (ELORET AND NASA ADVANCED
        SUPERCOMPUTING DIVISION, AMES RESEARCH CENTER).
     S,P,D,F,G,L SHELL GENERAL RYS QUADRATURE PROGRAMMED BY
        MICHEL DUPUIS (PACIFIC NORTHWEST NATIONAL LABORATORY).

          --------------------
          2 ELECTRON INTEGRALS
          --------------------

 THE -PK- OPTION IS OFF, THE INTEGRALS ARE NOT IN SUPERMATRIX FORM.
 STORING   15000 INTEGRALS/RECORD ON DISK, USING 12 BYTES/INTEGRAL.
 TWO ELECTRON INTEGRAL EVALUATION REQUIRES   89734 WORDS OF MEMORY.
 SCHWARZ INEQUALITY OVERHEAD:      1164 INTEGRALS, T=        0.01
 II,JST,KST,LST =  1  1  1  1 NREC =         1 INTLOC =    1
 II,JST,KST,LST =  2  1  1  1 NREC =         1 INTLOC =    2
 II,JST,KST,LST =  3  1  1  1 NREC =         1 INTLOC =   34
 II,JST,KST,LST =  4  1  1  1 NREC =         1 INTLOC =  140
 II,JST,KST,LST =  5  1  1  1 NREC =         1 INTLOC = 1358
 II,JST,KST,LST =  6  1  1  1 NREC =         1 INTLOC = 1929
 II,JST,KST,LST =  7  1  1  1 NREC =         1 INTLOC = 6792
 II,JST,KST,LST =  8  1  1  1 NREC =         1 INTLOC = 8825
 II,JST,KST,LST =  9  1  1  1 NREC =         1 INTLOC =11266
 II,JST,KST,LST = 10  1  1  1 NREC =         1 INTLOC =13741
 II,JST,KST,LST = 11  1  1  1 NREC =         3 INTLOC =  707
 II,JST,KST,LST = 12  1  1  1 NREC =         3 INTLOC = 6701
 II,JST,KST,LST = 13  1  1  1 NREC =         3 INTLOC =13519
 II,JST,KST,LST = 14  1  1  1 NREC =         4 INTLOC = 5323
 II,JST,KST,LST = 15  1  1  1 NREC =         7 INTLOC = 1270
 II,JST,KST,LST = 16  1  1  1 NREC =         7 INTLOC =14553
 II,JST,KST,LST = 17  1  1  1 NREC =         8 INTLOC =14217
 II,JST,KST,LST = 18  1  1  1 NREC =        10 INTLOC =  354
 II,JST,KST,LST = 19  1  1  1 NREC =        10 INTLOC =14549
 II,JST,KST,LST = 20  1  1  1 NREC =        16 INTLOC =11336
 II,JST,KST,LST = 21  1  1  1 NREC =        18 INTLOC = 8025
 II,JST,KST,LST = 22  1  1  1 NREC =        20 INTLOC = 6459
 II,JST,KST,LST = 23  1  1  1 NREC =        22 INTLOC = 7114
 II,JST,KST,LST = 24  1  1  1 NREC =        24 INTLOC = 4262
 II,JST,KST,LST = 25  1  1  1 NREC =        34 INTLOC =14681
 II,JST,KST,LST = 26  1  1  1 NREC =        38 INTLOC = 1881
 II,JST,KST,LST = 27  1  1  1 NREC =        41 INTLOC = 7367
 SCHWARZ INEQUALITY TEST SKIPPED        7915 INTEGRAL BLOCKS.
 TOTAL NUMBER OF NONZERO TWO-ELECTRON INTEGRALS =              660173
         45 INTEGRAL RECORDS WERE STORED ON DISK FILE  8.
  ...... END OF TWO-ELECTRON INTEGRALS .....
 STEP CPU TIME =     0.22 TOTAL CPU TIME =          0.3 (      0.0 MIN)
 TOTAL WALL CLOCK TIME=          0.5 SECONDS, CPU UTILIZATION IS    70.83%

          --------------------------
                 RHF SCF CALCULATION
          --------------------------

     NUCLEAR ENERGY =       303.0296121980
     MAXIT =   30     NPUNCH=    2
     EXTRAP=T  DAMP=F  SHIFT=F  RSTRCT=F  DIIS=F  DEM=F  SOSCF=T
     DENSITY MATRIX CONV=  1.00E-05
     SOSCF WILL OPTIMIZE     567 ORBITAL ROTATIONS, SOGTOL=   0.250
     MEMORY REQUIRED FOR RHF ITERS=     49068 WORDS.

 ITER EX DEM     TOTAL ENERGY        E CHANGE  DENSITY CHANGE     ORB. GRAD
   1  0  0     -255.8132116217  -255.8132116217   0.324774193   0.000000000
          ---------------START SECOND ORDER SCF---------------
   2  1  0     -256.1497283480    -0.3365167263   0.087616111   0.022729842
   3  2  0     -256.1652590457    -0.0155306977   0.037295027   0.008580892
   4  3  0     -256.1674185204    -0.0021594747   0.005002000   0.001175524
   5  4  0     -256.1674692285    -0.0000507081   0.000906733   0.000357442
   6  5  0     -256.1674727119    -0.0000034834   0.000596869   0.000102198
   7  6  0     -256.1674733485    -0.0000006366   0.000198918   0.000041003
   8  7  0     -256.1674733992    -0.0000000507   0.000043285   0.000009369
   9  8  0     -256.1674734056    -0.0000000064   0.000010316   0.000003323
  10  9  0     -256.1674734060    -0.0000000004   0.000003024   0.000000709
  11 10  0     -256.1674734060    -0.0000000000   0.000000991   0.000000262

          -----------------
          DENSITY CONVERGED
          -----------------
     TIME TO FORM FOCK OPERATORS=       0.1 SECONDS (       0.0 SEC/ITER)
     TIME TO SOLVE SCF EQUATIONS=       0.0 SECONDS (       0.0 SEC/ITER)

 FINAL RHF ENERGY IS     -256.1674734060 AFTER  11 ITERATIONS

          ------------
          EIGENVECTORS
          ------------

                      1          2          3          4          5
                  -11.1076   -11.0642   -11.0609   -11.0529   -11.0509
                     A          A          A          A          A   
    1  C  1  S   -0.000627   0.000135  -0.015588  -0.078714   0.988728
    2  C  1  S    0.000103   0.000015  -0.006108  -0.008522   0.036491
    3  C  1  X    0.000113  -0.000005   0.002366   0.002450   0.000472
    4  C  1  Y   -0.000040  -0.000019   0.003179  -0.003129  -0.000340
    5  C  1  Z    0.000161  -0.000021  -0.001205   0.001096  -0.000125
    6  C  2  S   -0.000533  -0.000190  -0.004358   0.988737   0.079646
    7  C  2  S    0.000110  -0.000037   0.000022   0.037643  -0.002522
    8  C  2  X   -0.000013   0.000018   0.000148   0.000068  -0.002627
    9  C  2  Y    0.000038   0.000020   0.000003  -0.000212   0.003013
   10  C  2  Z   -0.000076  -0.000034  -0.000088  -0.000057  -0.001090
   11  C  3  S   -0.002990  -0.002804   0.991829   0.003073   0.016892
   12  C  3  S   -0.005434   0.000047   0.037184   0.000635  -0.004945
   13  C  3  X    0.003465  -0.000002  -0.000058   0.000327  -0.002535
   14  C  3  Y   -0.000734  -0.000114  -0.000147   0.000149  -0.003094
   15  C  3  Z    0.001838  -0.000056   0.000045  -0.000137   0.001147
   16  H  4  S   -0.000100   0.000007   0.000232   0.000684  -0.006955
   17  H  5  S   -0.000011   0.000008   0.000190   0.000645  -0.007022
   18  C  6  S    0.002452  -0.000504  -0.001131  -0.005171  -0.002481
   19  C  6  S   -0.006449   0.000121   0.000116  -0.005970  -0.000493
   20  C  6  X   -0.000180  -0.000047  -0.000025  -0.003653  -0.000398
   21  C  6  Y    0.004271  -0.000020  -0.000007  -0.002017  -0.000008
   22  C  6  Z   -0.001077  -0.000092  -0.000064  -0.000872  -0.000080
   23  H  7  S   -0.000045  -0.000008  -0.000062  -0.006997  -0.000433
   24  H  8  S    0.000028   0.000008   0.000042  -0.006956  -0.000476
   25  C  9  S    0.992313   0.003931   0.003986   0.000556   0.000815
   26  C  9  S    0.034511  -0.005500  -0.005439   0.000198   0.000060
   27  C  9  X    0.000623   0.001996  -0.003692   0.000033  -0.000113
   28  C  9  Y    0.001604   0.003089   0.000865   0.000052  -0.000034
   29  C  9  Z   -0.001058   0.002250  -0.001836  -0.000068   0.000042
   30  H 10  S    0.000035   0.000042  -0.006997  -0.000016  -0.000029
   31  H 11  S    0.000051  -0.000170  -0.007012  -0.000121   0.000007
   32  H 12  S    0.000092  -0.000123  -0.000070   0.000142  -0.000034
   33  C 13  S   -0.002967   0.991946   0.002801   0.000212  -0.000080
   34  C 13  S   -0.005424   0.037762   0.000266  -0.000031  -0.000016
   35  C 13  X   -0.001897  -0.000009   0.000075  -0.000001   0.000011
   36  C 13  Y   -0.002970  -0.000075  -0.000041  -0.000040  -0.000003
   37  C 13  Z   -0.001924  -0.000246   0.000054  -0.000004  -0.000031
   38  H 14  S   -0.000077  -0.006998  -0.000016   0.000006   0.000002
   39  H 15  S    0.000036  -0.006983  -0.000070  -0.000020  -0.000000
   40  H 16  S    0.000029  -0.006949  -0.000078  -0.000004  -0.000015
   41  B 17  S    0.000312  -0.000004   0.000001   0.000002  -0.000003
   42  B 17  S   -0.001992   0.000055   0.000040   0.000049   0.000016
   43  B 17  X   -0.001267   0.000027  -0.000032  -0.000044   0.000016
   44  B 17  Y    0.001549  -0.000030  -0.000027   0.000022  -0.000001
   45  B 17  Z    0.001093  -0.000005   0.000000  -0.000053   0.000008
   46  H 18  S    0.000068  -0.000021   0.000009   0.000028  -0.000008
   47  H 19  S   -0.001203  -0.000198  -0.000041   0.000012  -0.000042
   48  H 20  S    0.000095   0.000050  -0.000035  -0.000050  -0.000001

                      6          7          8          9         10
                  -11.0284    -7.3791    -1.1035    -0.9851    -0.9316
                     A          A          A          A          A   
    1  C  1  S    0.002140  -0.000006  -0.089569   0.116001  -0.068511
    2  C  1  S    0.000116   0.000056   0.233571  -0.323316   0.196529
    3  C  1  X    0.000207  -0.000024  -0.049703   0.021940   0.008430
    4  C  1  Y    0.000119  -0.000004  -0.006106  -0.022503  -0.100254
    5  C  1  Z    0.000141   0.000018  -0.003484   0.007734   0.038948
    6  C  2  S    0.006327   0.000017  -0.089475   0.098332   0.102769
    7  C  2  S   -0.005331   0.000119   0.234258  -0.273192  -0.295863
    8  C  2  X    0.003528   0.000032  -0.016541  -0.038427   0.073315
    9  C  2  Y    0.001956   0.000138  -0.050251   0.028614  -0.014389
   10  C  2  Z    0.000913  -0.000032   0.002746  -0.013738   0.029536
   11  C  3  S    0.001273   0.000014  -0.102634   0.027922  -0.148127
   12  C  3  S    0.000150   0.000073   0.270808  -0.075809   0.427933
   13  C  3  X   -0.000011   0.000011  -0.025366  -0.069957   0.029363
   14  C  3  Y   -0.000173  -0.000151   0.038336  -0.044657  -0.010018
   15  C  3  Z   -0.000007   0.000081  -0.032899  -0.006158   0.003592
   16  H  4  S   -0.000132   0.000001   0.042005  -0.081620   0.059669
   17  H  5  S   -0.000030  -0.000017   0.046519  -0.081125   0.056737
   18  C  6  S    0.992123   0.000459  -0.111905  -0.017664   0.129721
   19  C  6  S    0.035814  -0.002573   0.285573   0.049387  -0.366282
   20  C  6  X    0.000189   0.001628   0.035359  -0.059667  -0.025285
   21  C  6  Y   -0.001823  -0.000484  -0.059488  -0.077261  -0.011379
   22  C  6  Z    0.000386  -0.001902   0.034645  -0.001911  -0.003979
   23  H  7  S   -0.000029  -0.000059   0.042514  -0.068792  -0.086850
   24  H  8  S   -0.000085  -0.000347   0.043478  -0.067081  -0.080678
   25  C  9  S   -0.001776   0.000399  -0.132664  -0.100943   0.002258
   26  C  9  S   -0.006764  -0.002221   0.354595   0.288075  -0.005089
   27  C  9  X   -0.000301   0.001419   0.037587  -0.062926   0.068113
   28  C  9  Y   -0.004073  -0.000986   0.051081  -0.041481  -0.129035
   29  C  9  Z    0.001987  -0.001368  -0.016403  -0.058940   0.060725
   30  H 10  S    0.000006  -0.000246   0.051385  -0.020106   0.120990
   31  H 11  S   -0.000071  -0.000058   0.051687  -0.011968   0.132747
   32  H 12  S   -0.006794  -0.000166   0.052663   0.020203  -0.107998
   33  C 13  S    0.000545   0.000003  -0.057593  -0.146092  -0.027233
   34  C 13  S    0.000243   0.000128   0.154295   0.408656   0.078136
   35  C 13  X    0.000049  -0.000061   0.022160   0.018768   0.011515
   36  C 13  Y   -0.000023  -0.000002   0.032002   0.032670  -0.015918
   37  C 13  Z    0.000058   0.000002   0.019424   0.016424   0.008109
   38  H 14  S   -0.000082  -0.000043   0.032072   0.103856   0.023015
   39  H 15  S   -0.000023  -0.000310   0.029825   0.103553   0.012412
   40  H 16  S   -0.000104   0.000105   0.028579   0.099323   0.031721
   41  B 17  S    0.000387   0.990871  -0.018067  -0.012290   0.018257
   42  B 17  S   -0.002554   0.036368   0.033865   0.025613  -0.038060
   43  B 17  X   -0.001427   0.000250   0.012891   0.004840  -0.011421
   44  B 17  Y   -0.000637   0.000509  -0.004839  -0.009496  -0.005583
   45  B 17  Z    0.001933  -0.000528  -0.012619  -0.009708   0.017569
   46  H 18  S    0.000307  -0.006344   0.009152   0.002867  -0.011939
   47  H 19  S    0.000079  -0.002513   0.013352   0.017814   0.004333
   48  H 20  S    0.000315  -0.006360   0.007477   0.008683  -0.012573

                     11         12         13         14         15
                   -0.8819    -0.7652    -0.6855    -0.6498    -0.6198
                     A          A          A          A          A   
    1  C  1  S   -0.082326  -0.123006  -0.004679  -0.006296  -0.001045
    2  C  1  S    0.242576   0.384444   0.016226   0.019974   0.008583
    3  C  1  X    0.032066   0.135123  -0.042750   0.046857  -0.220964
    4  C  1  Y    0.075441  -0.028230   0.121959   0.065217  -0.018681
    5  C  1  Z   -0.025634  -0.011048  -0.043569   0.182459   0.104456
    6  C  2  S   -0.085077   0.107583  -0.028312  -0.000087   0.009582
    7  C  2  S    0.249575  -0.334394   0.090014   0.000982  -0.028804
    8  C  2  X    0.082303   0.050203   0.124513  -0.000363  -0.135763
    9  C  2  Y    0.017351  -0.135327  -0.003620   0.089080  -0.210658
   10  C  2  Z    0.010653   0.018967   0.081838   0.164355   0.137283
   11  C  3  S    0.069648   0.082723   0.052941  -0.001424  -0.006221
   12  C  3  S   -0.205231  -0.259447  -0.169808   0.004462   0.022240
   13  C  3  X    0.065541   0.078676  -0.190998   0.003141   0.000687
   14  C  3  Y    0.020213   0.118389   0.098615   0.044671   0.239842
   15  C  3  Z   -0.005439  -0.060596  -0.100618   0.209015   0.041702
   16  H  4  S    0.084774   0.174960  -0.012275   0.140833  -0.048044
   17  H  5  S    0.081921   0.187089  -0.011325  -0.096542  -0.155316
   18  C  6  S    0.071513  -0.041735   0.101280   0.015420  -0.023136
   19  C  6  S   -0.203667   0.125225  -0.332075  -0.046635   0.074451
   20  C  6  X    0.039180  -0.105084   0.103477  -0.120867   0.173191
   21  C  6  Y    0.085496  -0.127327  -0.172572   0.042320  -0.025758
   22  C  6  Z   -0.026883  -0.017464   0.184946   0.121396   0.131075
   23  H  7  S    0.090295  -0.154187   0.014548  -0.065374  -0.214082
   24  H  8  S    0.080185  -0.161942   0.065681   0.136511  -0.032481
   25  C  9  S    0.068255  -0.023785  -0.117519   0.015682   0.049291
   26  C  9  S   -0.207281   0.073112   0.399215  -0.049597  -0.181181
   27  C  9  X   -0.085597  -0.090198   0.041066  -0.140722   0.147226
   28  C  9  Y   -0.140767   0.130001  -0.043004   0.047815   0.197507
   29  C  9  Z   -0.050913  -0.089871   0.048219   0.123321   0.048513
   30  H 10  S   -0.067614  -0.130117  -0.121547   0.158796   0.034068
   31  H 11  S   -0.055194  -0.127481  -0.154000  -0.074847  -0.164702
   32  H 12  S   -0.054679   0.068615  -0.310172  -0.025285  -0.116294
   33  C 13  S   -0.146557   0.012460   0.026083  -0.005063  -0.025945
   34  C 13  S    0.428566  -0.038873  -0.081070   0.016648   0.085155
   35  C 13  X   -0.028022  -0.015503   0.086011  -0.124173  -0.100607
   36  C 13  Y   -0.047049   0.057321   0.086594  -0.013117  -0.166847
   37  C 13  Z   -0.033741  -0.010983   0.113543   0.046375  -0.174313
   38  H 14  S    0.139013  -0.017822  -0.080277  -0.071289   0.130999
   39  H 15  S    0.137541   0.008899  -0.092544   0.086374   0.096457
   40  H 16  S    0.139497  -0.048669  -0.045397   0.036210   0.072372
   41  B 17  S    0.022806  -0.018857  -0.005458  -0.149844   0.042545
   42  B 17  S   -0.049369   0.042202   0.014917   0.373535  -0.108703
   43  B 17  X   -0.017079  -0.000408   0.017496   0.004537   0.041016
   44  B 17  Y    0.003659  -0.004019  -0.031026   0.019652   0.014470
   45  B 17  Z    0.015200  -0.022354   0.016676  -0.001045   0.015066
   46  H 18  S   -0.015583   0.005010   0.009119   0.205055  -0.029568
   47  H 19  S   -0.010890  -0.004586   0.045629   0.091908  -0.056978
   48  H 20  S   -0.012810   0.023950  -0.013125   0.192342  -0.087257

                     16         17         18         19         20
                   -0.5920    -0.5567    -0.5549    -0.5322    -0.4912
                     A          A          A          A          A   
    1  C  1  S   -0.000819  -0.011876  -0.008849   0.000960   0.025174
    2  C  1  S    0.004422   0.041044   0.029186  -0.002769  -0.102685
    3  C  1  X   -0.068378   0.034409   0.078880  -0.015267   0.348662
    4  C  1  Y   -0.116749   0.043433   0.033629  -0.100245  -0.021648
    5  C  1  Z   -0.273188   0.009745   0.134911   0.023017  -0.100449
    6  C  2  S    0.002662   0.010780   0.011672  -0.005863   0.010110
    7  C  2  S   -0.008308  -0.035481  -0.040509   0.020495  -0.042308
    8  C  2  X   -0.047468  -0.033822  -0.098311  -0.151244  -0.068476
    9  C  2  Y   -0.123824  -0.090209   0.034141   0.069146   0.171476
   10  C  2  Z   -0.130828  -0.085055   0.180407   0.300391  -0.057766
   11  C  3  S    0.000391   0.012342   0.017976  -0.000744   0.016488
   12  C  3  S   -0.001478  -0.042097  -0.062547   0.003812  -0.070113
   13  C  3  X    0.016910  -0.121304  -0.026252   0.177566  -0.023324
   14  C  3  Y   -0.025410   0.077770  -0.036340  -0.144140  -0.209548
   15  C  3  Z   -0.192078   0.087145  -0.110813  -0.282271   0.130741
   16  H  4  S   -0.222882   0.052618   0.149926  -0.019791   0.087117
   17  H  5  S    0.176911   0.014792  -0.051652  -0.000867   0.221927
   18  C  6  S    0.004740  -0.027811  -0.020896  -0.011096  -0.028117
   19  C  6  S   -0.009716   0.100236   0.078314   0.040891   0.095846
   20  C  6  X    0.088450   0.005159  -0.029931   0.002628   0.040302
   21  C  6  Y    0.074664   0.108625   0.089804   0.013303  -0.170354
   22  C  6  Z    0.087735  -0.055870  -0.027081   0.090887   0.238265
   23  H  7  S    0.022315  -0.002254  -0.159403  -0.228484   0.081674
   24  H  8  S   -0.138084  -0.121037   0.126392   0.255969   0.056700
   25  C  9  S    0.035360  -0.006926   0.000483   0.002320  -0.009074
   26  C  9  S   -0.121898   0.030265   0.000207  -0.011660   0.023245
   27  C  9  X    0.084468   0.006108   0.089601  -0.061833   0.000578
   28  C  9  Y    0.020493  -0.090160  -0.104049   0.008333   0.321830
   29  C  9  Z    0.107466   0.141319  -0.009183  -0.046740   0.059750
   30  H 10  S   -0.149604   0.061587  -0.116982  -0.260982   0.101666
[...]
 18   H            X -0.00675304 -0.00172710 -0.06362812 -0.28646822  0.28647803
                   Y -0.00357754 -0.00013759 -0.09008881 -0.35521548  0.34985372
                   Z  0.00227984 -0.00219957 -0.08920478 -0.49352815  0.48230314
 19   H            X  0.00097413 -0.00851809  0.03941611 -0.01107343 -0.00636076
                   Y  0.00406672  0.00131231  0.88371415 -0.15618360 -0.00340983
                   Z -0.00459743  0.00338257 -0.34009539  0.06573970 -0.00468490
 20   H            X -0.00272508 -0.00333924  0.12758418  0.63037053  0.61363851
                   Y -0.00362079 -0.00220477 -0.04346930 -0.13109670 -0.12696227
                   Z  0.01168094  0.00920044  0.05327387  0.20078434  0.20107987

 TRANS. SAYVETZ    X  0.00000044 -0.00000055 -0.00000165 -0.00000004  0.00000000
                   Y -0.00000036 -0.00000007  0.00000065 -0.00000021 -0.00000001
                   Z  0.00000017 -0.00000009  0.00000036  0.00000003  0.00000005
               TOTAL  0.00000059  0.00000056  0.00000181  0.00000021  0.00000005

   ROT. SAYVETZ    X -0.00005001  0.00003940 -0.00007469 -0.00004913  0.00006405
                   Y -0.00021260 -0.00033951 -0.00010097 -0.00000050 -0.00003067
                   Z  0.00002991  0.00006750 -0.00028585  0.00003137 -0.00005568
               TOTAL  0.00022044  0.00034839  0.00031223  0.00005829  0.00009024

                           51          52          53          54          55
       FREQUENCY:      3572.40     3618.67     3623.23     3628.63     3735.20  
        SYMMETRY:         A           A           A           A           A   
    REDUCED MASS:      1.03885     1.06562     1.06701     1.06975     1.11234
    IR INTENSITY:      0.00996     0.02725     0.05225     0.03961     0.01107

  1   C            X  0.00008896 -0.04682115  0.03810831 -0.03733139  0.00297464
                   Y  0.00000080 -0.00139141 -0.00297473 -0.00043938  0.01291261
                   Z  0.00001913  0.00405426 -0.00247358  0.00527549  0.03862471
  2   C            X  0.00002178  0.01351535  0.00866099 -0.00392576  0.01837836
                   Y  0.00009899  0.04827085  0.04264175 -0.02216111 -0.01639807
                   Z -0.00002394 -0.00995478 -0.00781494  0.00358396 -0.07647714
  3   C            X  0.00012212  0.00434579 -0.01098023 -0.01220461  0.00298287
                   Y  0.00005601 -0.00821780  0.03324624  0.04748704 -0.00507014
                   Z  0.00004746  0.00452719 -0.01984814 -0.03024369 -0.00773214
  4   H            X -0.00060933  0.24752305 -0.19317723  0.17609767 -0.18564185
                   Y -0.00030381  0.11594526 -0.09029936  0.08383438 -0.08612504
                   Z -0.00091814  0.33330121 -0.26165592  0.24069461 -0.24538538
  5   H            X -0.00043547  0.28418312 -0.22758365  0.22267122  0.14955114
                   Y  0.00024619 -0.11902373  0.09173099 -0.09481299 -0.06085903
                   Z  0.00062501 -0.37593947  0.30357108 -0.29734839 -0.20015183
  6   C            X -0.00007487 -0.00027954 -0.00002934  0.00003433  0.00962937
                   Y  0.00029615 -0.00190626 -0.00145404  0.00083642 -0.00581579
                   Z -0.00000553  0.00091626  0.00108477 -0.00086240  0.01424186
  7   H            X -0.00017279 -0.17440857 -0.14471374  0.07128586 -0.17515520
                   Y -0.00028837 -0.23563601 -0.19510443  0.09494491 -0.23986057
                   Z  0.00082255  0.44558679  0.37245818 -0.18262723  0.44643457
  8   H            X  0.00008349  0.03909739  0.03211945 -0.01595332 -0.04853940
                   Y -0.00091227 -0.30968873 -0.26781095  0.13690463  0.42844736
                   Z -0.00101198 -0.32863678 -0.28674315  0.14710355  0.44724742
  9   C            X  0.00169082 -0.00045361  0.00067811  0.00186712 -0.00026419
                   Y  0.00191906  0.00021048 -0.00064317 -0.00027117  0.00098875
                   Z  0.00095918 -0.00030351  0.00073024  0.00106053 -0.00026733
 10   H            X -0.00023212  0.01384320 -0.05183463 -0.07180685 -0.00818312
                   Y  0.00010798  0.00733981 -0.02525638 -0.03397173 -0.00388177
                   Z -0.00042967 -0.09137720  0.36620840  0.52493432  0.06476420
 11   H            X -0.00047078 -0.04398101  0.16083634  0.21564268 -0.02750522
                   Y  0.00114213  0.09623343 -0.35917633 -0.48177198  0.06044569
                   Z  0.00048673  0.03759758 -0.14296931 -0.19402392  0.02367752
 12   H            X  0.00187023 -0.00998739 -0.01141964  0.01031655 -0.10896959
                   Y -0.00127063  0.00627410  0.00573692 -0.00615782  0.05936617
                   Z  0.00260550 -0.01231279 -0.01430127  0.01375786 -0.15523333
 13   C            X -0.01890856  0.00002379  0.00016029  0.00011421 -0.00018369
                   Y -0.03875152 -0.00002078  0.00000734 -0.00017756  0.00009816
                   Z -0.02915390  0.00006140 -0.00006012 -0.00019692 -0.00014573
 14   H            X -0.32119531  0.00012759 -0.00001074 -0.00113696 -0.00000119
                   Y  0.17523231 -0.00008185 -0.00007268  0.00059659 -0.00009552
                   Z  0.51529599 -0.00021154  0.00006814  0.00199418 -0.00011471
 15   H            X  0.46749864 -0.00014996 -0.00079080  0.00011257  0.00230749
                   Y -0.17064219  0.00021518  0.00025598 -0.00023469 -0.00081884
                   Z  0.14191019  0.00003502 -0.00032791 -0.00007837  0.00072091
 16   H            X  0.05735345  0.00002205 -0.00016234 -0.00014202 -0.00009518
                   Y  0.42690801 -0.00016613 -0.00072198  0.00047960 -0.00068684
                   Z -0.32725992 -0.00006499  0.00048982 -0.00048150  0.00046764
 17   B            X  0.00010301 -0.00015253  0.00002458  0.00033084  0.00001674
                   Y -0.00006686 -0.00003291  0.00021563  0.00038517  0.00007479
                   Z  0.00013218  0.00016468  0.00018023 -0.00004608 -0.00049942
 18   H            X  0.00024620 -0.00112088 -0.00177797 -0.00075653  0.00190578
                   Y  0.00029826 -0.00092963 -0.00141001 -0.00043429  0.00197129
                   Z  0.00049262 -0.00075559 -0.00163509 -0.00082912  0.00137802
 19   H            X -0.00085878 -0.00021052  0.00184309  0.00259211  0.00081707
                   Y  0.00315505 -0.00015998 -0.00337285 -0.00422145 -0.00044408
                   Z  0.00159763 -0.00051362  0.00078585  0.00171304 -0.00050637
 20   H            X -0.00107545 -0.00000386  0.00063584  0.00002295  0.00024074
                   Y  0.00023363  0.00013882 -0.00013582 -0.00029885 -0.00009979
                   Z -0.00039281 -0.00018279  0.00001881  0.00029846  0.00026747

 TRANS. SAYVETZ    X -0.00000021 -0.00000014  0.00000011  0.00000010 -0.00000019
                   Y -0.00000064 -0.00000005  0.00000057 -0.00000005  0.00000004
                   Z -0.00000017 -0.00000028 -0.00000036 -0.00000010 -0.00000012
               TOTAL  0.00000069  0.00000031  0.00000068  0.00000015  0.00000022

   ROT. SAYVETZ    X  0.00009624  0.00056627  0.00116883  0.00052877 -0.00003993
                   Y  0.00015013 -0.00119580  0.00081813 -0.00014350  0.00008686
                   Z  0.00009011  0.00049386 -0.00000720  0.00018877 -0.00012220
               TOTAL  0.00019980  0.00141227  0.00142673  0.00057950  0.00015515

                           56          57          58          59          60
       FREQUENCY:      3738.14     3740.33     3745.15     3745.69     3770.92  
        SYMMETRY:         A           A           A           A           A   
    REDUCED MASS:      1.09725     1.11187     1.10865     1.10832     1.11073
    IR INTENSITY:      0.14799     0.04987     0.01340     0.02057     0.03381

  1   C            X  0.00142204  0.00381635 -0.00222403 -0.00138698 -0.00001025
                   Y  0.00147488  0.01744724 -0.01577874 -0.01086341 -0.00001685
                   Z  0.00459656  0.05236074 -0.04782813 -0.03295995  0.00003408
  2   C            X  0.00759777 -0.00748108  0.00451709  0.00350226  0.00001162
                   Y -0.00133852  0.00784444 -0.00415199 -0.00285728 -0.00000796
                   Z -0.01843524  0.03082296 -0.01790228 -0.01309929  0.00009852
  3   C            X -0.00178378  0.02030517  0.01531002  0.01232443 -0.00028596
                   Y  0.00192895 -0.03067950 -0.02192867 -0.01808923  0.00084936
                   Z  0.00545411 -0.05428060 -0.04133744 -0.03329692  0.00131875
  4   H            X -0.02413364 -0.25221417  0.22646448  0.15555621  0.00008516
                   Y -0.01161559 -0.11402940  0.10397570  0.07145755  0.00000613
                   Z -0.03227446 -0.33360666  0.29930208  0.20559965  0.00004881
  5   H            X  0.01366826  0.21141968 -0.20670049 -0.14367402  0.00041294
                   Y -0.00493772 -0.09036899  0.08295459  0.05740393 -0.00007884
                   Z -0.01880976 -0.27727797  0.26775096  0.18581585 -0.00046664
  6   C            X -0.04590744 -0.00456145  0.00065244 -0.00267539 -0.00020686
                   Y  0.02673047  0.00261093 -0.00032146  0.00139293 -0.00017130
                   Z -0.06397326 -0.00653259  0.00089866 -0.00363314 -0.00027259
  7   H            X -0.05236413  0.06868321 -0.04074533 -0.03033702  0.00011863
                   Y -0.06999863  0.09579054 -0.05686810 -0.04221165  0.00018349
                   Z  0.12760933 -0.17802201  0.10567029  0.07837417 -0.00043622
  8   H            X -0.01011974  0.02176597 -0.01279273 -0.00927545  0.00006269
                   Y  0.09462360 -0.18417172  0.10698808  0.07699159 -0.00046946
                   Z  0.09728752 -0.18928356  0.10895784  0.07846786 -0.00045945
  9   C            X  0.00073847 -0.00024167  0.00025814 -0.00000686  0.00020585
                   Y -0.00401074 -0.00036221  0.00075159 -0.00076735 -0.00008156
                   Z  0.00056028  0.00032396  0.00036063 -0.00036399  0.00023826
 10   H            X  0.00701601 -0.06425799 -0.05154723 -0.04112851  0.00179625
                   Y  0.00389652 -0.03586463 -0.03127871 -0.02471307  0.00062616
                   Z -0.04905575  0.48204677  0.37687321  0.30253368 -0.00967469
 11   H            X  0.01419347 -0.17602031 -0.12890599 -0.10536061  0.00384731
                   Y -0.03137152  0.39431869  0.29148149  0.23785022 -0.00833699
                   Z -0.01251926  0.15398673  0.11406117  0.09295210 -0.00323984
 12   H            X  0.50944461  0.04906912 -0.00532551  0.02906640  0.00113693
                   Y -0.27146005 -0.02667698  0.00338674 -0.01500199 -0.00077573
                   Z  0.72104854  0.06923980 -0.00901263  0.04067564  0.00182126
 13   C            X -0.00261264 -0.00291559 -0.03658140  0.04782939 -0.05480947
                   Y -0.00035690  0.00022514 -0.00555118  0.00840765  0.06144023
                   Z  0.00352907  0.00232736  0.03972885 -0.05367532 -0.04057727
 14   H            X  0.01854767  0.01543989  0.21881349 -0.29047129  0.04652813
                   Y -0.01005254 -0.00826396 -0.11880324  0.15829355 -0.02327009
                   Z -0.02965713 -0.02452298 -0.34783365  0.46224471 -0.07901626
 15   H            X  0.01088413  0.01798154  0.18326807 -0.23232294  0.66206340
                   Y -0.00389968 -0.00623261 -0.06749876  0.08634071 -0.24250961
                   Z  0.00352344  0.00571077  0.05889236 -0.07463840  0.20122095
 16   H            X  0.00262601  0.00138931  0.02981052 -0.04092201 -0.06104298
                   Y  0.02096894  0.01173211  0.24636584 -0.33680149 -0.46329017
                   Z -0.01493333 -0.00868107 -0.18612993  0.25471415  0.35600108
 17   B            X -0.00060368  0.00005251  0.00001387 -0.00009814  0.00009720
                   Y -0.00104313  0.00021536  0.00008637  0.00011891  0.00010696
                   Z  0.00101340  0.00017187 -0.00024356  0.00009400  0.00000771
 18   H            X  0.00070110 -0.00135945  0.00053836 -0.00025806  0.00009599
                   Y -0.00036994 -0.00127200  0.00025696  0.00024960  0.00007478
                   Z  0.00197458 -0.00127007  0.00019931  0.00028337  0.00020363
 19   H            X -0.00432957  0.00101408  0.00142849 -0.00028914  0.00025333
                   Y  0.00445057 -0.00262827 -0.00248232  0.00002784 -0.00175647
                   Z  0.00598212  0.00162977  0.00007249  0.00282089  0.00023632
 20   H            X  0.00323046  0.00028600  0.00067183  0.00099833 -0.00041220
                   Y  0.00029916  0.00001086 -0.00003361  0.00001231  0.00006326
                   Z  0.00161523  0.00024245  0.00065677  0.00070595 -0.00004875

 TRANS. SAYVETZ    X  0.00000083  0.00000010  0.00000001  0.00000019 -0.00000008
                   Y -0.00000024  0.00000004 -0.00000003 -0.00000004  0.00000006
                   Z  0.00000017  0.00000003 -0.00000017 -0.00000002 -0.00000002
               TOTAL  0.00000088  0.00000011  0.00000018  0.00000020  0.00000010

   ROT. SAYVETZ    X -0.00013399  0.00004360  0.00000556  0.00001666 -0.00001583
                   Y -0.00009160  0.00009810  0.00003759  0.00000988  0.00004707
                   Z  0.00003074  0.00010921  0.00006856  0.00000329 -0.00001025
               TOTAL  0.00016519  0.00015314  0.00007839  0.00001964  0.00005071

 REFERENCE ON SAYVETZ CONDITIONS - A. SAYVETZ, J.CHEM.PHYS., 7, 383-389(1939).

 NOTE - THE MODES J,K ARE ORTHONORMALIZED ACCORDING TO
 SUM ON I   M(I) * (X(I,J)*X(I,K) + Y(I,J)*Y(I,K) + Z(I,J)*Z(I,K)) = DELTA(J,K)

  MODE FREQ(CM**-1)  SYMMETRY  RED. MASS  IR INTENS.
     1     712.982    A        1.848972    3.894293
     2       2.362    A        3.164721    0.017888
     3       0.076    A        4.802063    0.000014
     4       0.065    A        4.807690    0.000015
     5       0.032    A        4.805728    0.000003
     6       4.658    A        2.993506    0.058742
     7       5.331    A        2.768002    0.105792
     8      40.036    A        1.739141    0.035922
     9     212.457    A        1.861389    0.106713
    10     228.307    A        1.054315    0.006994
    11     324.999    A        2.146598    0.104124
    12     369.391    A        2.216714    0.189267
    13     443.754    A        2.282116    0.207913
    14     551.861    A        1.740451    0.316319
    15     600.558    A        1.886232    0.610475
    16     716.319    A        3.330762    0.397857
    17     751.543    A        2.189795    0.011233
    18     882.422    A        1.895431    0.030627
    19     929.357    A        1.838833    0.048540
    20    1001.627    A        1.840223    0.066883
    21    1026.190    A        1.610389    0.038748
    22    1065.891    A        1.469135    0.159585
    23    1095.328    A        2.164622    0.047456
    24    1132.585    A        1.677729    0.013782
    25    1173.928    A        1.415008    0.010344
    26    1215.899    A        1.351177    0.389384
    27    1244.044    A        1.367949    0.827700
    28    1268.648    A        1.564992    0.077665
    29    1324.438    A        1.864015    0.116204
    30    1368.303    A        1.340647    0.327783
    31    1417.031    A        1.522933    0.312066
    32    1455.030    A        1.162199    2.830094
    33    1475.567    A        1.218961    0.002627
    34    1493.938    A        1.218753    0.018873
    35    1510.446    A        1.427904    0.025194
    36    1529.485    A        1.103720    0.591596
    37    1550.792    A        1.073692    0.031257
    38    1608.404    A        1.915137    0.027013
    39    1622.203    A        1.899992    0.077312
    40    1636.944    A        1.615077    0.042873
    41    1707.945    A        1.294543    0.035502
    42    1774.469    A        2.161606    0.231508
    43    1797.527    A        1.094259    0.003070
    44    1800.231    A        1.085438    0.095189
    45    1810.255    A        1.321889    0.033368
    46    1821.248    A        1.107001    0.007617
    47    1838.702    A        1.117683    0.005539
    48    2892.322    A        1.058875    0.818201
    49    3156.534    A        1.062991    0.461963
    50    3309.983    A        1.134485    0.460897
    51    3572.402    A        1.038849    0.009959
    52    3618.666    A        1.065623    0.027249
    53    3623.233    A        1.067011    0.052254
    54    3628.635    A        1.069749    0.039606
    55    3735.195    A        1.112343    0.011068
    56    3738.137    A        1.097253    0.147986
    57    3740.330    A        1.111866    0.049869
    58    3745.147    A        1.108646    0.013399
    59    3745.685    A        1.108315    0.020574
    60    3770.919    A        1.110729    0.033808

     -------------------------------
     THERMOCHEMISTRY AT T=  298.15 K
     -------------------------------

 USING IDEAL GAS, RIGID ROTOR, HARMONIC NORMAL MODE APPROXIMATIONS.
 P=  1.01325E+05 PASCAL.
 ALL FREQUENCIES ARE SCALED BY   1.00000
 THE MOMENTS OF INERTIA ARE (IN AMU*BOHR**2)
            479.24343           732.60442           928.48505
 THE ROTATIONAL SYMMETRY NUMBER IS  1.0
 THE ROTATIONAL CONSTANTS ARE (IN GHZ)
      3.76236     2.46120     1.94197
   1 IMAGINARY FREQUENCY VIBRATION(S) IS(ARE) EXCLUDED
     FROM THE FOLLOWING THERMOCHEMICAL ANALYSIS.
      8 -     60 VIBRATIONAL MODES ARE USED IN THERMOCHEMISTRY.
 THE HARMONIC ZERO POINT ENERGY IS (SCALED BY   1.000)
        0.212087 HARTREE/MOLECULE    46547.646848 CM**-1/MOLECULE 
      133.086534 KCAL/MOL              556.834059 KJ/MOL

               Q               LN Q
 ELEC.     1.00000E+00       0.000000
 TRANS.    3.70351E+07      17.427377
 ROT.      2.04382E+05      12.227744
 VIB.      2.98362E+01       3.395724
 TOT.      2.25839E+14      33.050845

              E         H         G         CV        CP        S
           KJ/MOL    KJ/MOL    KJ/MOL   J/MOL-K   J/MOL-K   J/MOL-K
 ELEC.      0.000     0.000     0.000     0.000     0.000     0.000
 TRANS.     3.718     6.197   -43.201    12.472    20.786   165.684
 ROT.       3.718     3.718   -30.312    12.472    12.472   114.138
 VIB.     566.940   566.940   548.416    76.500    76.500    62.128
 TOTAL    574.377   576.856   474.903   101.444   109.758   341.951
 VIB. THERMAL CORRECTION E(T)-E(0) = H(T)-H(0) =     10105.783 J/MOL

              E         H         G         CV        CP        S
         KCAL/MOL  KCAL/MOL  KCAL/MOL CAL/MOL-K CAL/MOL-K CAL/MOL-K
 ELEC.      0.000     0.000     0.000     0.000     0.000     0.000
 TRANS.     0.889     1.481   -10.325     2.981     4.968    39.600
 ROT.       0.889     0.889    -7.245     2.981     2.981    27.280
 VIB.     135.502   135.502   131.075    18.284    18.284    14.849
 TOTAL    137.279   137.872   113.505    24.246    26.233    81.728
 VIB. THERMAL CORRECTION E(T)-E(0) = H(T)-H(0) =      2415.340 CAL/MOL
 ......END OF NORMAL COORDINATE ANALYSIS......
 STEP CPU TIME =     0.01 TOTAL CPU TIME =         97.7 (      1.6 MIN)
 TOTAL WALL CLOCK TIME=         98.9 SECONDS, CPU UTILIZATION IS    98.86%
               580000  WORDS OF DYNAMIC MEMORY USED
 EXECUTION OF GAMESS TERMINATED NORMALLY Sat Nov 13 15:09:33 2021
 DDI: 263640 bytes (0.3 MB / 0 MWords) used by master data server.

 ----------------------------------------
 CPU timing information for all processes
 ========================================
 0: 96.05 + 1.750 = 97.756
 ----------------------------------------
 ddikick.x: exited gracefully.
----- accounting info -----
Files used on the master node chemcompute-node-0.novalocal were:
-rw-r--r--. 1 chemcomp chemcomp     1554 Nov 13 15:07 /scratch/305976/341878.F05
-rw-rw-r--. 1 chemcomp chemcomp  8100720 Nov 13 15:09 /scratch/305976/341878.F08
-rw-rw-r--. 1 chemcomp chemcomp 85196800 Nov 13 15:09 /scratch/305976/341878.F10
-rw-rw-r--. 1 chemcomp chemcomp   564960 Nov 13 15:09 /scratch/305976/341878.F18
Sat Nov 13 15:09:37 UTC 2021
0.197u 0.137s 1:45.66 0.3%	0+0k 8+216io 0pf+0w
Finishing Up...
Looking for IR data...
Looking for Raman data...
vibramans not found
Looking for thermodynamics data...
Looking for UV-Vis data...
305976
